### # LAMMPS data file written by PSP ###
272 atoms
5 atom types
0.0 97.657433 xlo xhi
0.0 22.085636 ylo yhi
0.0 15.294589 zlo zhi

Masses

1 10.812
2 12.011
3 1.008
4 14.007
5 15.999

Atoms

  1 1 0 62.274  7.857  9.175
  2 1 0 51.589  4.246  6.971
  3 1 0 26.214 10.621  5.805
  4 1 0 81.205  5.245  6.745
  5 1 0 69.563  7.790  9.818
  6 1 0 46.047  9.741  8.396
  7 1 0 74.884 11.535  4.738
  8 1 0 88.012  8.751  7.325
  9 1 0 54.707 12.094  5.856
 10 1 0 33.086  6.574  7.092
 11 1 0 19.329  6.918  9.213
 12 1 0 91.815 17.143  5.456
 13 1 0 38.066 12.049  7.145
 14 1 0  9.545  9.959  5.252
 15 1 0 17.140 13.870  7.828
 16 2 0 55.754 12.722  6.848
 17 2 0 57.894 12.239  8.114
 18 2 0 57.930 13.217  9.291
 19 2 0 54.541 10.556  5.589
 20 2 0 54.996  8.228  6.316
 21 2 0 55.740  5.419  8.677
 22 2 0  4.039 13.060  8.963
 23 2 0 53.131  4.535  6.871
 24 2 0 59.943 10.843  8.378
 25 2 0 48.319  5.377  8.732
 26 2 0 44.627  5.028  9.053
 27 2 0 45.914  5.836  9.165
 28 2 0 46.265  8.357  9.101
 29 2 0 44.778 10.058  7.538
 30 2 0 42.475  9.390  6.883
 31 2 0 39.279  7.437  6.834
 32 2 0 40.107  8.691  6.577
 33 2 0 39.085 11.025  6.527
 34 2 0 55.138  6.005  7.407
 35 2 0 50.652  4.947  8.011
 36 2 0 64.557  6.087  6.436
 37 2 0 63.272  6.857  8.490
 38 2 0 93.020 18.162  5.412
 39 2 0 91.480 16.192  6.658
 40 2 0 89.978 14.412  7.525
 41 2 0 87.414 13.232  8.989
 42 2 0 88.495 12.523  8.176
 43 2 0 88.689 10.168  7.286
 44 2 0 86.621  8.501  8.005
 45 2 0 85.023  6.815  8.874
 46 2 0 83.901  3.778 10.722
 47 2 0 83.627  5.003  9.855
 48 2 0 81.783  5.498  8.180
 49 2 0 61.741  9.148  8.467
 50 2 0 80.308  6.298  6.014
 51 2 0 78.355 11.915  7.458
 52 2 0 78.408 10.868  6.354
 53 2 0 76.445 11.384  4.836
 54 2 0 73.941 11.345  5.974
 55 2 0 67.863 11.130  6.694
 56 2 0 69.208 10.917  7.380
 57 2 0 69.632  9.255  9.259
 58 2 0 68.593  6.701  9.246
 59 2 0 66.641  6.209  7.793
 60 2 0 64.367  6.080  4.921
 61 2 0 36.968 11.618  8.177
 62 2 0 79.363  8.591  6.076
 63 2 0 35.875  9.740  9.390
 64 2 0 71.603 11.198  6.786
 65 2 0 27.164 10.855  4.581
 66 2 0 13.260 13.670  7.804
 67 2 0 25.139  9.488  5.769
 68 2 0 24.034  5.108  9.481
 69 2 0 17.452  9.276  6.749
 70 2 0 10.348 13.329  8.922
 71 2 0 10.902 12.890  7.563
 72 2 0 15.648 14.216  8.166
 73 2 0 23.120  5.928  8.577
 74 2 0 29.639 11.013  4.198
 75 2 0 30.558 12.151  3.764
 76 2 0 17.590 12.752  6.821
 77 2 0 10.478 11.083  5.836
 78 2 0 31.118  9.136  4.920
 79 2 0 20.733  6.783  8.526
 80 2 0  8.050  9.772  5.691
 81 2 0 24.008  7.712  7.073
 82 2 0  6.110 10.664  6.961
 83 2 0 32.293  7.178  5.881
 84 2 0 18.169  7.760  8.585
 85 2 0 35.521  6.763 11.498
 86 2 0 17.768 11.597  3.812
 87 2 0 34.937  7.659 10.407
 88 2 0 33.428  7.405  8.379
 89 2 0  4.259 11.784  8.172
 90 2 0 17.041 11.023  5.021
 91 3 0 39.227  7.220  7.921
 92 3 0 30.046 12.774  3.000
 93 3 0 30.821 12.786  4.633
 94 3 0 34.718  6.140 11.951
 95 3 0 36.300  6.091 11.077
 96 3 0 33.513  5.476  6.991
 97 3 0 34.549  5.830  9.295
 98 3 0 34.189  8.324 10.890
 99 3 0 94.657 19.086  6.456
100 3 0 39.345  9.796  8.268
101 3 0 37.989 13.126  6.666
102 3 0 31.489 11.740  3.323
103 3 0 40.168  8.842  5.474
104 3 0 35.981  7.384 12.295
105 3 0 93.574 18.150  7.515
106 3 0 28.482 12.223  5.556
107 3 0  4.744 13.101  9.822
108 3 0  4.048 10.906  8.823
109 3 0  3.567 11.762  7.302
110 3 0  9.936  9.319  4.338
111 3 0  9.569 11.182  7.773
112 3 0 10.702 13.687  6.815
113 3 0 10.581 12.564  9.693
114 3 0 10.793 14.296  9.234
115 3 0  9.248 13.456  8.859
116 3 0 17.985 14.513  8.353
117 3 0 29.405 10.394  3.299
118 3 0 15.680 12.451  5.861
119 3 0 18.717 12.085  4.119
120 3 0 17.125 12.350  3.307
121 3 0 17.999 10.785  3.088
122 3 0 19.148  6.386 10.254
123 3 0 21.646  5.763 10.176
124 3 0 22.986  5.360  7.630
125 3 0 25.025  4.983  8.990
126 3 0 23.594  4.106  9.664
127 3 0 24.179  5.628 10.456
128 3 0 26.529 11.066  6.857
129 3 0 16.122 10.509  4.653
130 3 0 38.247  7.580  6.445
131 3 0 44.763  4.038  9.541
132 3 0 46.801 10.622  8.630
133 3 0 67.043 10.970  7.425
134 3 0 67.799 12.165  6.305
135 3 0 67.745 10.415  5.850
136 3 0 74.407 11.902  3.723
137 3 0 76.461  9.945  6.433
138 3 0 79.049 11.248  5.531
139 3 0 77.711 11.560  8.290
140 3 0 77.932 12.863  7.057
141 3 0 79.382 12.106  7.842
142 3 0 81.563  4.287  6.143
143 3 0 69.294 11.667  8.199
144 3 0 83.089  3.809  8.138
145 3 0 84.528  4.067 11.596
146 3 0 82.943  3.357 11.093
147 3 0 84.438  3.000 10.138
148 3 0 88.687  7.809  7.089
149 3 0 86.957 11.418  7.104
150 3 0 89.291 12.178  8.877
151 3 0 87.859 14.056  9.584
152 3 0 86.633 13.650  8.314
153 3 0 86.934 12.512  9.688
154 3 0 91.172 17.019  4.471
155 3 0 83.118  5.756 10.493
156 3 0 39.740  6.566  6.315
157 3 0 69.171  8.769  7.219
158 3 0 65.158  5.465  4.442
159 3 0 45.350  7.172  7.567
160 3 0 46.146  5.936 10.248
161 3 0 44.356  4.868  7.990
162 3 0 43.797  5.566  9.560
163 3 0  3.000 13.089  9.350
164 3 0 51.121  3.423  6.263
165 3 0 53.066  6.510  7.731
166 3 0 55.627  5.543  6.523
167 3 0 55.601  4.316  8.687
168 3 0 55.245  5.856  9.570
169 3 0 70.131  7.551 10.824
170 3 0 56.827  5.647  8.723
171 3 0 56.115 11.012  8.106
172 3 0 58.392 12.693  7.230
173 3 0 57.386 14.149  9.040
174 3 0 57.469 12.751 10.186
175 3 0 58.983 13.482  9.527
176 3 0 61.855  7.594 10.248
177 3 0 62.895  7.486  6.473
178 3 0 64.483  5.034  6.784
179 3 0 64.418  7.116  4.516
180 3 0 63.373  5.641  4.671
181 3 0 54.112 12.832  5.140
182 3 0  4.205 13.945  8.315
183 4 0 87.923 11.358  7.499
184 4 0 93.817 18.473  6.557
185 4 0 21.810  6.115  9.206
186 4 0 56.505 11.918  7.773
187 4 0 69.281  9.550  7.900
188 4 0 16.660 12.100  5.939
189 4 0 77.051 10.601  5.876
190 4 0 53.697  5.754  7.382
191 4 0 63.512  6.892  7.073
192 4 0 82.790  4.629  8.710
193 4 0 45.730  7.149  8.542
194 4 0 10.238 11.659  7.129
195 4 0 28.402 11.556  4.753
196 4 0 34.292  6.842  9.376
197 4 0 39.469  9.835  7.231
198 5 0 31.707  8.445  5.984
199 5 0 39.575 11.279  5.394
200 5 0 55.095  9.617  6.465
201 5 0 24.717  8.918  6.973
202 5 0 53.892 10.191  4.571
203 5 0 23.653  7.085  6.037
204 5 0 55.944 13.965  6.811
205 5 0 23.730  7.202  8.346
206 5 0 58.565 11.030  8.480
207 5 0 60.679 11.735  7.864
208 5 0 60.490  9.643  8.841
209 5 0 36.909 10.290  8.624
210 5 0 62.425  9.702  7.568
211 5 0 36.136 12.477  8.579
212 5 0 54.570  7.717  5.245
213 5 0 55.377  7.412  7.385
214 5 0 24.698  9.077  4.662
215 5 0 31.348  8.796  3.724
216 5 0 46.950  8.326 10.159
217 5 0 43.687  9.177  7.550
218 5 0 42.322 10.382  6.118
219 5 0 32.170  6.488  4.833
220 5 0 30.275 10.214  5.197
221 5 0 44.743 11.133  6.881
222 5 0 46.964  5.131  8.498
223 5 0 49.269  4.769  7.900
224 5 0 51.147  5.634  8.947
225 5 0 41.420  8.499  7.106
226 5 0 26.865 10.375  3.453
227 5 0 53.864  3.691  6.289
228 5 0 32.945  8.558  8.524
229 5 0 48.676  6.124  9.682
230 5 0 20.917  7.285  7.385
231 5 0 17.053  7.798  9.168
232 5 0 93.279 18.725  4.316
233 5 0 12.311 12.651  7.653
234 5 0 81.367  6.481  8.850
235 5 0 84.870  5.524  9.383
236 5 0 84.057  7.631  8.911
237 5 0 86.258  7.188  8.334
238 5 0 11.466 11.457  5.151
239 5 0 85.871  9.471  8.290
240 5 0  7.403  8.793  5.231
241 5 0 89.932 10.242  7.103
242 5 0 35.998  8.415  9.818
243 5 0  7.440 10.714  6.529
244 5 0 89.056 13.408  7.203
245 5 0  5.367  9.682  6.678
246 5 0 90.382 14.547  8.714
247 5 0 90.444 15.259  6.510
248 5 0 92.143 16.253  7.727
249 5 0  5.606 11.729  7.714
250 5 0 79.949  6.080  4.825
251 5 0 63.821  5.979  9.207
252 5 0 12.901 14.878  7.879
253 5 0 79.291  8.677  4.815
254 5 0 65.839  6.643  6.736
255 5 0 18.399  8.484  7.406
256 5 0 66.405  5.107  8.366
257 5 0 67.703  7.022  8.215
258 5 0 16.246  9.300  7.121
259 5 0 68.617  5.545  9.749
260 5 0 17.876 10.071  5.678
261 5 0 70.033 10.168 10.028
262 5 0 70.252 11.129  6.432
263 5 0 71.952 11.109  7.993
264 5 0 72.557 11.348  5.768
265 5 0 74.430 11.204  7.126
266 5 0 18.811 12.446  6.788
267 5 0 77.161 11.940  3.964
268 5 0 15.404 15.288  8.784
269 5 0 78.977  9.668  6.874
270 5 0 14.616 13.328  7.833
271 5 0 79.932  7.470  6.684
272 5 0 34.851 10.417  9.680