### # LAMMPS data file written by PSP ###
122 atoms
4 atom types
0.0 42.562022999999996 xlo xhi
0.0 17.281896 ylo yhi
0.0 14.741492000000001 zlo zhi

Masses

1 12.011
2 1.008
3 14.007
4 15.999

Atoms

  1 1 0 19.094  3.911  8.692
  2 1 0 28.327 10.230  8.598
  3 1 0 10.274 11.801  7.317
  4 1 0 25.865  8.307  6.810
  5 1 0 24.361  8.284  6.726
  6 1 0 10.190 11.240  4.833
  7 1 0 22.492  7.524  8.266
  8 1 0  9.537 11.969  8.619
  9 1 0  9.976  9.767  4.611
 10 1 0 20.266  4.620  9.319
 11 1 0 10.529  7.372  5.221
 12 1 0 11.224  6.631  6.332
 13 1 0 17.987  5.319  6.882
 14 1 0 17.128  6.507  6.539
 15 1 0 13.375  5.960  7.497
 16 1 0 21.946  6.522  9.248
 17 1 0 29.952 11.809  9.763
 18 1 0 27.948  8.831  8.192
 19 1 0 31.157 12.217  8.965
 20 1 0 38.038  8.527  8.698
 21 1 0 37.915  8.308  7.214
 22 1 0  3.629 10.218  8.744
 23 1 0 35.669  9.330  6.620
 24 1 0  5.069  9.823  8.872
 25 1 0 32.702 11.249  6.197
 26 1 0  7.100  9.450 10.350
 27 1 0 34.169  9.204  6.611
 28 1 0 14.793  6.449  7.558
 29 1 0 32.202 12.580  6.677
 30 1 0  7.912 10.685 10.087
 31 2 0 33.022 13.086  7.233
 32 2 0 38.362  9.169  6.666
 33 2 0 25.889  8.967  8.848
 34 2 0 28.263  7.017  8.783
 35 2 0 32.797  8.057  7.341
 36 2 0 28.477  8.608  7.237
 37 2 0 39.562  7.336  6.887
 38 2 0 30.113 12.210  7.093
 39 2 0 30.163  9.669  9.561
 40 2 0 29.403 11.675 11.615
 41 2 0 24.009  9.317  6.938
 42 2 0 33.807 10.835  7.983
 43 2 0 36.057  7.241  6.942
 44 2 0 29.146 12.559  9.579
 45 2 0 33.859  8.936  5.576
 46 2 0  3.102 10.033  9.704
 47 2 0 31.647 14.282  5.942
 48 2 0  3.207  9.901  6.879
 49 2 0 24.360  6.507  7.980
 50 2 0  3.562 11.308  8.520
 51 2 0  5.108 10.011 11.013
 52 2 0  6.940  8.111 11.741
 53 2 0  7.403  8.641  9.645
 54 2 0  8.749  9.971  8.252
 55 2 0  7.955 12.941  8.007
 56 2 0 10.278 12.086  9.439
 57 2 0  8.503 11.624  6.120
 58 2 0 10.228 11.872  3.000
 59 2 0 11.284 11.445  4.878
 60 2 0 11.415  9.169  6.078
 61 2 0 10.696  6.066  3.796
 62 2 0 24.136  6.965  5.313
 63 2 0  9.439  7.149  5.263
 64 2 0 12.506  4.226  7.577
 65 2 0 12.886  6.182  8.477
 66 2 0 15.392  5.482  5.745
 67 2 0 17.237  6.427  4.590
 68 2 0 17.297  7.283  7.315
 69 2 0 17.563  5.417  8.975
 70 2 0 18.112  3.530 10.334
 71 2 0 19.474  3.329  7.828
 72 2 0 38.097 10.007 10.264
 73 2 0 20.631  5.889  7.634
 74 2 0 20.567  7.618 10.092
 75 2 0 22.773  5.871  9.595
 76 2 0 13.188  7.195  5.709
 77 2 0 37.929 10.684  8.605
 78 3 0 38.028  9.853  9.233
 79 3 0 20.924  5.684  8.615
 80 3 0 36.500  8.184  6.865
 81 3 0 33.565 10.469  7.032
 82 3 0 31.041 12.382  7.545
 83 3 0 29.529 10.471  9.347
 84 3 0 26.494  8.738  8.026
 85 3 0 23.811  7.363  7.726
 86 3 0 18.100  4.893  8.248
 87 3 0 15.719  6.110  6.514
 88 3 0 12.655  6.651  6.425
 89 3 0  9.549 11.629  6.089
 90 3 0 10.717  8.813  5.384
 91 3 0  5.679  9.752 10.170
 92 3 0  8.714 10.787  8.902
 93 4 0 10.539  6.013  7.191
 94 4 0 38.083  7.541  9.480
 95 4 0 38.589  7.134  6.840
 96 4 0 36.198 10.440  6.342
 97 4 0 33.769  8.190  7.491
 98 4 0  7.332  9.021 11.666
 99 4 0 32.306 10.795  5.086
100 4 0 31.843 13.376  5.581
101 4 0  7.857 11.646 10.901
102 4 0 32.266 12.406  9.542
103 4 0 30.260 11.800 11.130
104 4 0 27.613 11.200  8.219
105 4 0 28.359  7.923  9.177
106 4 0  8.746 13.130  8.576
107 4 0 26.563  7.967  5.815
108 4 0 23.921  7.926  5.440
109 4 0 11.536 11.807  7.316
110 4 0 21.767  8.489  7.895
111 4 0 21.415  7.180 10.370
112 4 0  3.000  9.460  7.743
113 4 0 20.687  4.264 10.454
114 4 0 18.504  3.000  9.590
115 4 0  9.627 11.982  3.784
116 4 0 18.570  4.679  5.963
117 4 0 17.499  7.066  5.303
118 4 0  9.109  9.373  3.784
119 4 0 15.146  7.199  8.513
120 4 0 13.377  4.578  7.257
121 4 0 11.048  6.977  3.979
122 4 0  5.754  9.611  7.833