### # LAMMPS data file written by PSP ###
257 atoms
5 atom types
0.0 63.968886999999995 xlo xhi
0.0 22.929767 ylo yhi
0.0 15.168505 zlo zhi

Masses

1 12.011
2 1.008
3 14.007
4 15.999
5 32.067

Atoms

  1 1 0 57.931  9.500 10.321
  2 1 0  7.866  9.503  8.793
  3 1 0  7.838 10.317  7.508
  4 1 0 50.035 13.780  9.482
  5 1 0  4.387  4.634  6.899
  6 1 0  5.735  5.028  7.542
  7 1 0 54.634 11.848  6.375
  8 1 0  6.606  5.922  6.629
  9 1 0 50.588 12.868  8.327
 10 1 0  9.245  7.039  6.221
 11 1 0  8.989  9.977  6.474
 12 1 0 11.831 10.376  5.820
 13 1 0 59.127  7.719  6.709
 14 1 0 14.349 12.668  7.641
 15 1 0 16.373 14.443  8.507
 16 1 0 58.539  7.443  5.303
 17 1 0 19.361 14.049  8.989
 18 1 0 55.248 13.257  6.321
 19 1 0 21.226 15.826  7.028
 20 1 0 10.946 13.785  6.885
 21 1 0 48.402 11.343  4.601
 22 1 0 36.467 17.294  5.110
 23 1 0 31.844 14.031 10.405
 24 1 0 32.269 15.141  9.482
 25 1 0 39.563 12.713  9.523
 26 1 0 29.975 12.472  4.491
 27 1 0 29.866 11.240  5.377
 28 1 0 40.168 13.746 10.517
 29 1 0 11.154 15.233  7.433
 30 1 0 26.250 15.694  8.233
 31 1 0 44.311 14.680  7.286
 32 1 0 21.927 18.264  6.863
 33 1 0 45.193 14.263  6.158
 34 1 0 20.718 17.301  7.055
 35 1 0 16.471 16.914  8.044
 36 1 0 47.461 10.286  5.087
 37 1 0 16.450 15.553  7.410
 38 1 0 25.118 15.460  7.215
 39 1 0 22.541 13.823  5.478
 40 1 0 12.034 13.327  5.834
 41 1 0 25.277 14.083  6.495
 42 1 0 58.135  8.349  7.724
 43 1 0 55.332  8.217  8.515
 44 1 0 55.206 10.963  7.530
 45 1 0 53.661 12.571  9.593
 46 1 0 51.015 11.527  8.955
 47 1 0 50.665  9.902  6.358
 48 1 0 47.761  9.717  6.493
 49 1 0 45.902 11.491  7.739
 50 1 0 44.038 13.533  8.347
 51 1 0 41.641 12.692  6.744
 52 1 0 39.110 13.266  8.143
 53 1 0 37.729 12.653  5.645
 54 1 0 36.184 15.084  6.471
 55 1 0 33.999 13.190  6.188
 56 1 0 36.361 16.640  6.532
 57 1 0 32.338 14.695  7.995
 58 1 0 28.739 11.278  6.469
 59 1 0 29.328 14.004  7.674
 60 1 0 25.682 11.279  6.569
 61 2 0 26.341 14.116  6.095
 62 2 0  9.289 12.854  5.960
 63 2 0  8.897 10.774  5.707
 64 2 0 24.863 11.172  5.802
 65 2 0 12.436 16.673  8.257
 66 2 0 12.876 14.965  8.732
 67 2 0 25.800 10.299  7.088
 68 2 0  5.229  7.754  7.314
 69 2 0 15.559 15.532  6.781
 70 2 0 28.643 10.191  6.813
 71 2 0  9.351  6.217  5.486
 72 2 0 17.610 14.443  6.141
 73 2 0 28.475 14.272  6.972
 74 2 0 17.516 16.058  5.701
 75 2 0  6.871  5.310  5.724
 76 2 0 29.105 14.551  8.644
 77 2 0 22.280 13.247  6.383
 78 2 0  9.346 14.446  5.595
 79 2 0 11.060 13.062  7.778
 80 2 0  5.511  5.591  8.468
 81 2 0  3.000  5.676  5.702
 82 2 0 13.840 12.946  8.577
 83 2 0  5.920  3.000  8.148
 84 2 0 14.111 11.608  7.471
 85 2 0  3.242  6.412  7.339
 86 2 0 12.837 10.249  6.248
 87 2 0  6.876 10.104  7.000
 88 2 0 15.465 14.678  9.090
 89 2 0  7.047  4.014  8.791
 90 2 0  7.451 12.307  7.029
 91 2 0 20.148 13.805  9.844
 92 2 0 14.412 17.453  7.651
 93 2 0  7.246 11.952  8.656
 94 2 0 10.255  7.153  6.665
 95 2 0  8.388  9.883 10.858
 96 2 0 22.091 15.696  7.741
 97 2 0  9.659 10.481  9.722
 98 2 0 11.628  9.481  5.174
 99 2 0 22.083 13.283  4.585
100 2 0 11.906 14.156  5.105
101 2 0 19.129 12.992  8.529
102 2 0 31.945 10.892  5.260
103 2 0 20.298 17.564  8.094
104 2 0 41.116 15.281  9.273
105 2 0 44.859 15.499  7.814
106 2 0 43.205 15.885  5.951
107 2 0 42.665 15.929  7.540
108 2 0 45.280 13.167  4.330
109 2 0 43.899 14.279  4.429
110 2 0 46.438 10.767  5.101
111 2 0 46.999  9.615  3.175
112 2 0 46.570  8.556  4.386
113 2 0 49.693 12.018  3.000
114 2 0 49.387 10.255  3.017
115 2 0 41.939 14.876 10.802
116 2 0 49.724 12.748  7.601
117 2 0 51.663 14.587  7.598
118 2 0 50.772 15.777  9.493
119 2 0 51.498 14.722 10.773
120 2 0 53.534 12.010  6.582
121 2 0 53.916 11.372  4.425
122 2 0 55.115 10.272  4.973
123 2 0 55.289 13.492  4.117
124 2 0 56.334 14.647  5.026
125 2 0 59.462  6.751  7.122
126 2 0 60.141  9.554  6.532
127 2 0 60.969  8.267  5.826
128 2 0 51.590 13.298  6.554
129 2 0 15.126 18.258  9.075
130 2 0 38.762 11.321 10.835
131 2 0 40.337 11.945  9.313
132 2 0 19.948 18.330  5.333
133 2 0 18.879 18.126  6.492
134 2 0 23.241 19.042  5.374
135 2 0 21.744 19.930  5.625
136 2 0 24.233 15.387  7.814
137 2 0 25.267 17.485  6.616
138 2 0 25.565 16.376  5.392
139 2 0 28.023 16.637  7.427
140 2 0 26.938 17.707  8.405
141 2 0 29.618 10.409  4.662
142 2 0 31.441 11.361  6.791
143 2 0 37.744 12.665 10.633
144 2 0 32.943 15.512  7.514
145 2 0 31.243 14.037  3.902
146 2 0 31.548 15.990  9.573
147 2 0 33.753 15.668 10.947
148 2 0 33.727 16.646  9.582
149 2 0 32.533 12.971 12.169
150 2 0 33.770 13.187 10.879
151 2 0 37.380 16.799  7.033
152 2 0 35.759 17.788  8.185
153 2 0 34.544 17.734  7.066
154 2 0 35.521 18.466  3.606
155 2 0 35.376 19.166  5.320
156 2 0 31.789 12.452  3.389
157 2 0 34.784 12.466  6.081
158 2 0 58.734  7.681  3.207
159 2 0 36.091 14.611  7.466
160 2 0 33.200 12.890  5.508
161 2 0 59.561  8.974  4.142
162 2 0 57.187  8.936 10.893
163 2 0 57.465 10.268  9.702
164 2 0 57.819  9.348  7.383
165 2 0 55.541  8.693  9.483
166 2 0 54.538  7.444  8.686
167 2 0 56.315 10.918  7.251
168 2 0 53.513 13.479  8.998
169 2 0 54.040 13.074 10.553
170 2 0 50.089 11.093  9.363
171 2 0 58.557 10.027 11.077
172 2 0 51.431  9.251  5.807
173 2 0 38.553 12.375  4.955
174 2 0 50.570 10.765  5.731
175 2 0 38.372 14.061  8.360
176 2 0 41.102 11.789  6.412
177 2 0 36.829 12.223  5.235
178 2 0 43.672 14.125  9.228
179 2 0 45.701 11.873  6.727
180 2 0 46.953  8.994  6.698
181 2 0 45.229 10.621  7.909
182 2 0 42.252 13.017  5.873
183 3 0 33.604 15.649  9.884
184 3 0 31.246 13.019  4.076
185 3 0 31.168 10.826  5.960
186 3 0 27.201 16.738  8.078
187 3 0 24.976 16.548  6.241
188 3 0 22.248 19.015  5.678
189 3 0 19.672 17.585  6.016
190 3 0 17.617 15.412  6.512
191 3 0 12.331 15.638  8.145
192 3 0  9.536 13.763  6.365
193 3 0  8.766  9.935  9.876
194 3 0  7.865 11.738  7.808
195 3 0  3.375  5.633  6.663
196 3 0  6.504  3.819  7.920
197 3 0 32.766 13.265 11.207
198 3 0 15.205 17.599  8.268
199 3 0 35.319 17.156  7.468
200 3 0 55.679 13.833  5.037
201 3 0 54.798 11.270  5.046
202 3 0 35.581 18.343  4.675
203 3 0 38.413 12.018 10.136
204 3 0 41.195 14.651 10.102
205 3 0 51.616 13.550  7.543
206 3 0 59.009  8.092  4.122
207 3 0 43.049 15.284  6.799
208 3 0 44.664 13.750  4.913
209 3 0 50.781 14.867 10.001
210 3 0 47.338  9.202  4.091
211 3 0 60.362  8.531  6.638
212 3 0 49.188 11.219  3.402
213 4 0  6.968  8.704  9.089
214 4 0 37.359 16.886  4.315
215 4 0 57.720  6.485  5.170
216 4 0 55.494 13.907  7.345
217 4 0  4.126  3.448  6.581
218 4 0 26.365 14.954  9.271
219 4 0 10.297 16.172  7.288
220 4 0 17.534 17.424  8.500
221 4 0 48.508 12.435  5.243
222 4 0 22.861 18.224  7.767
223 4 0 46.451 14.321  6.311
224 4 0 39.946 13.665 11.739
225 4 0 28.953 13.061  4.024
226 4 0 49.015 13.426 10.099
227 4 0 30.617 13.733 10.499
228 5 0 38.158 11.945  7.258
229 5 0 40.442 14.037  7.110
230 5 0 42.746 12.198  8.145
231 5 0 45.640 12.835  8.983
232 5 0 47.663 10.967  7.864
233 5 0 55.119 11.529  9.301
234 5 0 51.644 10.187  7.872
235 5 0 52.228 11.653 10.373
236 5 0 37.675 14.445  5.552
237 5 0 54.533  9.229  7.232
238 5 0 56.666  7.183  7.848
239 5 0 58.998  8.382  9.375
240 5 0 49.315  8.672  6.598
241 5 0 34.620 14.772  5.513
242 5 0 27.139 11.648  5.551
243 5 0 30.852 14.636  6.863
244 5 0 29.183 12.195  8.033
245 5 0 25.200 12.672  7.690
246 5 0 24.276 13.874  4.932
247 5 0 21.661 15.446  5.236
248 5 0 19.983 14.512  7.346
249 5 0 17.743 14.580  9.767
250 5 0 16.220 12.725  7.828
251 5 0 13.836 13.651  6.167
252 5 0 11.796 11.813  4.733
253 5 0  8.694  8.552  5.382
254 5 0  8.142  6.438  7.522
255 5 0  5.719  7.420  6.062
256 5 0 33.395 13.164  7.894
257 5 0 10.679 10.200  7.248