### # LAMMPS data file written by PSP ###
122 atoms
3 atom types
0.0 34.278121999999996 xlo xhi
0.0 14.14705 ylo yhi
0.0 13.735969 zlo zhi

Masses

1 12.011
2 1.008
3 15.999

Atoms

  1 1 0 20.912  7.866  6.121
  2 1 0 25.107  5.586  4.897
  3 1 0 13.496  7.067  5.512
  4 1 0 16.800  6.743  6.781
  5 1 0 17.201  7.431  8.097
  6 1 0 30.159  8.548  7.758
  7 1 0 18.626  5.519  5.916
  8 1 0 17.984  4.552  4.912
  9 1 0 29.107  7.499  7.393
 10 1 0 20.743  6.390  6.495
 11 1 0 28.246  7.590  4.365
 12 1 0 22.348  5.113  7.679
 13 1 0 21.657  3.743  7.703
 14 1 0 27.501  7.333  5.677
 15 1 0 24.456  6.072  8.069
 16 1 0 24.993  5.915  9.494
 17 1 0 13.430  8.486  9.767
 18 1 0 13.016  8.061  8.356
 19 1 0 14.473  7.211  6.686
 20 1 0  7.530  6.707  4.995
 21 1 0  3.672  4.746  7.949
 22 1 0  5.011  4.723  8.695
 23 1 0  5.948  6.889  8.211
 24 1 0  4.936  7.995  7.891
 25 1 0  7.604  6.689  6.523
 26 1 0  9.469  6.276  7.896
 27 1 0 10.329  5.121  8.418
 28 1 0 25.213  6.724  5.926
 29 1 0  9.628  9.393  8.311
 30 1 0 10.670  8.268  8.298
 31 2 0 16.469  5.703  7.016
 32 2 0 19.432  3.377  4.379
 33 2 0 16.913  4.396  5.160
 34 2 0  9.505  9.795  7.278
 35 2 0 13.487  7.998  4.902
 36 2 0 14.588  6.255  4.128
 37 2 0  8.648  9.000  8.657
 38 2 0 16.354  7.414  8.819
 39 2 0 18.024  4.981  3.884
 40 2 0  9.380 11.147  9.069
 41 2 0 13.945 10.072 10.736
 42 2 0 16.808  9.307  7.796
 43 2 0 14.439  6.263  7.275
 44 2 0 12.755  6.976  8.407
 45 2 0 12.625  8.247 10.497
 46 2 0 18.036  6.868  8.566
 47 2 0 14.336  7.915 10.068
 48 2 0 18.612  5.025  6.919
 49 2 0 12.468  6.905  5.890
 50 2 0  3.097  5.528  6.269
 51 2 0 21.412  7.936  5.130
 52 2 0 30.491  9.066  6.832
 53 2 0 28.111  6.109  8.302
 54 2 0 29.627  6.724  6.774
 55 2 0 28.693  9.049  3.190
 56 2 0 27.780  6.980  3.557
 57 2 0 29.310  7.279  4.468
 58 2 0 27.616  6.245  5.899
 59 2 0 24.850  5.351  3.000
 60 2 0 24.282  4.899  5.185
 61 2 0 26.050  4.995  4.864
 62 2 0 20.265  6.367  7.506
 63 2 0 24.222  7.231  5.934
 64 2 0 25.613  6.799  9.768
 65 2 0 25.646  5.018  9.544
 66 2 0 23.836  7.006  8.067
 67 2 0 21.644  3.406  9.610
 68 2 0 21.920  3.182  6.781
 69 2 0 10.721  7.858  9.337
 70 2 0 20.552  3.862  7.727
 71 2 0 22.023  5.683  8.585
 72 2 0 21.142  8.659  7.873
 73 2 0 19.923  8.368  6.038
 74 2 0 23.535  6.650 10.532
 75 2 0 11.983  4.938  7.422
 76 2 0 31.055  7.790  9.302
 77 2 0 10.987  5.468  9.247
 78 2 0  9.661  4.339  8.842
 79 2 0  3.000  5.507  8.415
 80 2 0  3.180  3.754  8.049
 81 2 0  5.815  4.231  8.105
 82 2 0  4.878  4.077  9.588
 83 2 0  6.791  7.384  8.734
 84 2 0  4.084  7.579  7.314
 85 2 0 29.723  9.312  8.441
 86 2 0  4.900  9.761  7.117
 87 2 0  7.831  7.742  6.817
 88 2 0  8.517  7.014  4.586
 89 2 0  7.307  5.685  4.607
 90 2 0  5.683  7.166  4.625
 91 2 0  4.548  8.415  8.845
 92 2 0  8.865  6.637  8.758
 93 3 0 13.843  5.962  4.719
 94 3 0 14.109  8.325  7.486
 95 3 0 13.706  9.858  9.796
 96 3 0 11.911  8.838  7.920
 97 3 0 10.040 10.415  9.175
 98 3 0  8.614  5.762  6.893
 99 3 0 11.072  4.550  7.375
100 3 0  6.564  7.622  4.553
101 3 0  6.354  6.231  7.015
102 3 0  5.549  9.014  7.147
103 3 0  5.377  6.006  9.177
104 3 0 15.760  7.468  6.142
105 3 0 10.302  7.285  7.339
106 3 0 17.626  8.748  7.865
107 3 0 23.946  5.756 10.413
108 3 0 18.627  3.305  4.953
109 3 0 19.959  5.752  5.498
110 3 0 21.709  8.526  7.068
111 3 0 22.031  5.793  6.475
112 3 0 22.079  3.000  8.815
113 3 0 23.746  4.893  7.718
114 3 0 25.572  6.216  7.208
115 3 0 24.837  6.118  3.629
116 3 0 26.142  7.711  5.494
117 3 0 28.179  8.949  4.030
118 3 0 28.050  8.147  6.702
119 3 0 28.611  6.925  8.572
120 3 0 31.278  7.937  8.346
121 3 0 17.917  6.749  5.904
122 3 0  3.881  5.002  6.585