### # LAMMPS data file written by PSP ###
3050 atoms
3076 bonds
3 atom types
0.0 41.54308734852139 xlo xhi
0.0 41.54308734852139 ylo yhi
0.0 41.54308734852139 zlo zhi

Masses

1 12.011
2 1.008
3 32.067

Atoms

   1 1 0 32.263 10.217 33.007
   2 1 0 15.988 32.625 19.994
   3 1 0 36.269 27.111 21.095
   4 1 0 16.953 32.578 18.797
   5 1 0 38.903  8.195 13.741
   6 1 0 15.926 31.311 16.474
   7 1 0 17.371 32.606 34.800
   8 1 0 16.705 32.088 15.407
   9 1 0 39.858 10.299 15.284
  10 1 0 17.485 30.436 13.196
  11 1 0 37.989  7.913 12.551
  12 1 0 34.626 25.641 22.829
  13 1 0 38.688 11.156 15.823
  14 1 0 18.222 34.066 12.169
  15 1 0 19.197 30.665 35.559
  16 1 0 18.923 34.284 10.819
  17 1 0 39.326 13.603 14.692
  18 1 0 17.617 33.464  8.517
  19 1 0 33.389 24.769 23.076
  20 1 0 18.834 33.187  7.603
  21 1 0 38.859 14.880 15.410
  22 1 0 17.789 31.353 12.004
  23 1 0 14.995 30.231 20.844
  24 1 0 16.864 32.336 33.380
  25 1 0 15.163 28.831 21.443
  26 1 0 13.109 33.836 28.523
  27 1 0 10.798 21.301 34.525
  28 1 0 32.384 32.016 17.309
  29 1 0 10.767 21.734 33.056
  30 1 0 13.504 32.359 28.655
  31 1 0 12.297 22.946 31.059
  32 1 0 34.048 30.144 18.389
  33 1 0 11.023 22.866 30.199
  34 1 0 15.744 32.205 30.510
  35 1 0 10.779 25.075 28.318
  36 1 0 35.172 29.719 19.338
  37 1 0 11.938 26.046 28.587
  38 1 0 16.246 33.587 30.961
  39 1 0 11.273 27.929 26.513
  40 1 0 30.081 10.202 31.329
  41 1 0 12.309 27.143 25.699
  42 1 0 36.081  7.931 10.032
  43 1 0 13.552 26.549 23.256
  44 1 0 35.973 28.492 21.708
  45 1 0 14.935 27.115 23.626
  46 1 0 36.373  9.274 10.718
  47 1 0 18.745 34.792  5.337
  48 1 0  9.640 18.800 34.820
  49 1 0 19.411 30.654 37.077
  50 1 0 39.989 14.430 17.880
  51 1 0 37.569 29.596 28.781
  52 1 0 38.985 31.271 30.696
  53 1 0 38.317 17.817 33.820
  54 1 0 40.003 32.213 30.033
  55 1 0 33.458 24.264 34.441
  56 1 0 39.390 33.985 32.102
  57 1 0 36.585 17.908 35.927
  58 1 0  4.628 14.974  3.150
  59 1 0  5.845 15.712  3.730
  60 1 0 38.620 18.550 32.508
  61 1 0  5.431 17.740  1.848
  62 1 0  8.000 20.897  2.142
  63 1 0  9.378 20.194  2.181
  64 1 0 10.067 20.634  4.828
  65 1 0 11.560 20.695  5.190
  66 1 0 12.349 22.682  3.455
  67 1 0 13.640 23.502  3.585
  68 1 0 15.379 22.133  5.409
  69 1 0 16.842 22.563  5.259
  70 1 0 17.618 22.490  7.989
  71 1 0  6.000 19.099  1.446
  72 1 0 38.002 30.029 27.373
  73 1 0 32.265 24.519 36.882
  74 1 0 36.414 28.105 25.937
  75 1 0 18.350 38.796  6.067
  76 1 0 34.597 24.334 25.652
  77 1 0 18.396 39.398  4.654
  78 1 0 40.238 15.508 18.943
  79 1 0 18.703 32.056 39.309
  80 1 0 38.676 17.812 18.251
  81 1 0 35.286 23.008 25.300
  82 1 0 38.451 18.748 19.443
  83 1 0 17.670 32.674 40.249
  84 1 0 38.611 21.242 18.096
  85 1 0 36.751 22.119 27.654
  86 1 0 37.778 22.374 18.720
  87 1 0 38.264 22.928 21.346
  88 1 0 36.712 23.138 28.806
  89 1 0 39.172 23.401 22.485
  90 1 0 39.923 25.392 24.283
  91 1 0 36.793 20.913 30.491
  92 1 0 39.079 24.883 25.465
  93 1 0 31.146 24.224 37.880
  94 1 0 37.712 27.288 25.930
  95 1 0 36.718 20.492 31.962
  96 1 0 18.613 36.256  4.923
  97 1 0 33.053 33.143 16.505
  98 1 0  9.280 18.514 36.283
  99 1 0 10.983 33.436 26.624
 100 1 0 20.395 19.709 22.988
 101 1 0 28.559  2.333 37.565
 102 1 0 19.284 18.728 22.578
 103 1 0 29.172  0.957 37.264
 104 1 0 19.870 15.988 23.036
 105 1 0 18.447 15.471 23.273
 106 1 0 18.034 12.853 22.176
 107 1 0 16.813 12.235 22.872
 108 1 0 14.952 13.639 24.336
 109 1 0 26.409  1.033 38.796
 110 1 0 13.809 12.611 24.327
 111 1 0 13.290  9.255 24.461
 112 1 0 11.522  7.948 26.160
 113 1 0 10.582  8.218 27.332
 114 1 0  9.690 10.339 28.924
 115 1 0  8.756  9.357 29.647
 116 1 0  9.532 36.340 10.681
 117 1 0 31.860 39.134  3.646
 118 1 0 10.325 36.042 11.961
 119 1 0 34.615 38.795  3.299
 120 1 0 14.333 10.060 25.271
 121 1 0 22.851 19.290 21.877
 122 1 0 25.124  1.356 39.556
 123 1 0 23.799 19.216 20.677
 124 1 0 18.868 16.716 39.051
 125 1 0 36.400 27.014 15.451
 126 1 0 21.486 15.965 38.893
 127 1 0 35.598 25.898 16.129
 128 1 0 21.892 14.728 39.711
 129 1 0 22.639 26.936 19.043
 130 1 0 20.392 12.380 39.165
 131 1 0 33.643 23.893 17.417
 132 1 0 21.462 11.329 39.477
 133 1 0 31.772 23.180 19.532
 134 1 0 20.372  8.994 40.738
 135 1 0 30.480 23.976 19.299
 136 1 0 21.372  7.845 40.553
 137 1 0 29.026 22.902 21.539
 138 1 0 24.007  8.150 39.817
 139 1 0 28.453 21.939 20.491
 140 1 0 24.548  6.786 40.275
 141 1 0 26.992 19.636 19.833
 142 1 0 23.334  4.498 39.292
 143 1 0 25.823 20.366 19.147
 144 1 0 23.629  3.518 40.453
 145 1 0  8.652 36.672 14.204
 146 1 0 35.849 38.355  4.083
 147 1 0  9.115 35.984 15.492
 148 1 0 36.600 37.438  6.596
 149 1 0  3.266 31.395 24.602
 150 1 0  2.959 28.779 23.893
 151 1 0  2.115 27.599 23.401
 152 1 0  1.370 25.879 21.340
 153 1 0  2.344 24.744 21.703
 154 1 0  3.563 24.562 19.183
 155 1 0  4.793 24.723 18.281
 156 1 0  3.190 23.285 16.371
 157 1 0  3.769 21.895 16.669
 158 1 0  2.396 19.979 14.960
 159 1 0  1.259 20.612 14.140
 160 1 0  1.908 18.727 12.185
 161 1 0  1.583 18.291 10.753
 162 1 0  1.407 15.529 10.599
 163 1 0  1.496 15.038  9.149
 164 1 0  1.600 16.013  6.603
 165 1 0  2.209 16.895  5.514
 166 1 0 12.065 33.781 25.592
 167 1 0 34.712 32.275 14.371
 168 1 0  9.410 20.743 39.774
 169 1 0  9.565 19.603 38.769
 170 1 0  2.471 31.867 25.830
 171 1 0 19.099 22.164  8.236
 172 1 0  2.926 30.376 28.203
 173 1 0  1.350 30.500 31.585
 174 1 0  8.536 38.056 17.345
 175 1 0 35.750 36.212  7.007
 176 1 0  8.182 37.580 18.764
 177 1 0 34.575 37.197  9.315
 178 1 0 10.017 35.984 20.000
 179 1 0 34.162 36.194 10.405
 180 1 0 11.400 35.729 20.605
 181 1 0 36.586 34.951 10.795
 182 1 0 13.018 35.454 22.856
 183 1 0 36.961 34.121 12.031
 184 1 0 12.947 33.919 22.933
 185 1 0 34.542 33.470 13.427
 186 1 0  5.307 39.216 39.489
 187 1 0  4.974 38.598 38.122
 188 1 0  3.620 36.544 39.453
 189 1 0  2.789 35.299 39.149
 190 1 0  1.812 33.823 37.009
 191 1 0  2.955 33.446 36.037
 192 1 0  2.046 34.678 33.727
 193 1 0  2.475 34.090 32.373
 194 1 0  1.589 31.507 32.718
 195 1 0  2.674 31.478 29.236
 196 1 0 20.918 23.778  7.001
 197 1 0 21.586 25.137  6.771
 198 1 0 23.751 26.843  7.177
 199 1 0 28.589 15.997 22.541
 200 1 0 29.148 14.636 22.981
 201 1 0 31.968 14.564 22.258
 202 1 0 32.418 15.804 21.467
 203 1 0 34.882 15.452 22.731
 204 1 0 36.266 16.085 22.907
 205 1 0 38.240 14.144 22.785
 206 1 0 39.569 14.653 23.356
 207 1 0 40.705 16.941 24.316
 208 1 0 25.884 15.534 23.410
 209 1 0 40.741 18.142 25.260
 210 1 0 10.015  3.651  4.765
 211 1 0  2.517 35.835  8.897
 212 1 0  1.710 34.546  8.753
 213 1 0  8.523  1.598  5.896
 214 1 0  1.348 32.011  7.808
 215 1 0  7.569  1.322  7.055
 216 1 0  2.046 30.647  7.791
 217 1 0  6.354  2.650  9.198
 218 1 0  4.576 30.780  8.915
 219 1 0 10.918  4.320  5.828
 220 1 0 25.661 15.130 21.947
 221 1 0 24.062 13.979 19.950
 222 1 0 23.816 15.277 19.160
 223 1 0 14.017 10.691  5.797
 224 1 0 14.039  8.525  3.917
 225 1 0 12.953  7.524  4.335
 226 1 0 10.903  8.061  6.092
 227 1 0  9.952  6.914  5.714
 228 1 0  1.173 13.171 16.787
 229 1 0  2.633 13.629 16.932
 230 1 0  3.385 11.563 15.201
 231 1 0  4.630 11.003 14.517
 232 1 0  7.366 11.439 14.315
 233 1 0  8.015 11.502 15.718
 234 1 0  9.068 14.063 15.646
 235 1 0 10.307 14.364 16.504
 236 1 0 11.989 12.407 15.545
 237 1 0 13.516 12.406 15.699
 238 1 0 14.202 14.300 17.741
 239 1 0 15.597 14.055 18.324
 240 1 0 16.410 16.749 18.701
 241 1 0 17.391 16.976 19.862
 242 1 0 19.696 15.518 19.804
 243 1 0 21.034 15.125 19.172
 244 1 0  5.612  1.348  9.537
 245 1 0  5.400 29.550  8.523
 246 1 0  7.185 27.653  9.531
 247 1 0 30.485 25.084 32.531
 248 1 0 16.877 28.777  8.082
 249 1 0 23.373 11.781 10.788
 250 1 0 23.989 10.414 11.127
 251 1 0 17.186 28.234  9.487
 252 1 0 23.789  8.384  9.251
 253 1 0 25.781 24.846 26.457
 254 1 0 23.830  7.151 10.185
 255 1 0 19.936 28.319  9.393
 256 1 0 25.998  5.527  9.572
 257 1 0 27.513  5.587  9.385
 258 1 0 20.859 28.286 10.618
 259 1 0 29.619  7.425  9.505
 260 1 0 24.120 23.680 24.416
 261 1 0 30.592  6.275  9.207
 262 1 0 19.324 27.370 12.861
 263 1 0 20.203 26.836 13.996
 264 1 0 24.717 24.784 23.534
 265 1 0 18.698 27.772 16.214
 266 1 0 18.801 26.908 17.481
 267 1 0 25.133 25.932 21.009
 268 1 0 21.315 26.459 18.440
 269 1 0 20.798 10.976 10.241
 270 1 0 15.326 11.487  5.791
 271 1 0 26.962 23.879 26.293
 272 1 0 17.997 27.485  5.902
 273 1 0  7.294 27.158  8.078
 274 1 0  9.928 26.098  7.433
 275 1 0 30.108 24.860 31.063
 276 1 0 10.834 26.325  8.652
 277 1 0 12.136 26.821  1.908
 278 1 0 13.190 25.102  7.540
 279 1 0 12.707 23.865  8.308
 280 1 0 12.695 26.998  3.328
 281 1 0 12.871 21.121  8.866
 282 1 0 28.684 25.976 28.936
 283 1 0 13.370 21.271 10.315
 284 1 0 15.170 27.657  2.202
 285 1 0 15.635 19.674 10.033
 286 1 0 17.137 19.554  9.762
 287 1 0 16.569 28.098  2.625
 288 1 0 19.713 19.186 10.582
 289 1 0 29.030 24.682 28.180
 290 1 0 20.042 17.821 11.207
 291 1 0 18.063 28.661  4.899
 292 1 0 19.432 15.575  9.580
 293 1 0 20.508 14.608 10.085
 294 1 0 19.573 11.900 10.222
 295 1 0 38.822 26.037 14.524
 296 1 0 14.275 14.092  6.196
 297 1 0 17.682 15.434  5.848
 298 1 0 35.110 35.056 30.815
 299 1 0 38.795 40.479 34.433
 300 1 0 34.115 33.898 30.626
 301 1 0 32.153 31.704  3.518
 302 1 0 32.015 34.506 28.702
 303 1 0 32.562 30.637  2.503
 304 1 0 32.187 35.969 28.271
 305 1 0 23.575 37.621 19.143
 306 1 0 29.987 36.024 26.416
 307 1 0 39.552 39.382 35.180
 308 1 0 22.669 36.954 18.110
 309 1 0 21.576 34.761 16.909
 310 1 0 31.835 35.023 22.770
 311 1 0 20.788 33.492 17.258
 312 1 0 32.464 36.377 22.398
 313 1 0 20.510 33.187 19.999
 314 1 0 30.969 36.789 20.083
 315 1 0 20.104 31.749 20.337
 316 1 0 29.754 37.415 19.394
 317 1 0 18.411 30.238 21.965
 318 1 0 31.076 35.738 25.375
 319 1 0 35.322 34.159 33.451
 320 1 0 33.151 24.452 32.951
 321 1 0 35.951 34.492 34.807
 322 1 0 24.480 26.512  5.863
 323 1 0 26.932 25.817  7.035
 324 1 0 28.002 24.770  7.371
 325 1 0 29.563 27.066  8.130
 326 1 0 30.322 27.207  6.803
 327 1 0 32.082 29.515  7.032
 328 1 0 31.898 30.283  8.353
 329 1 0 34.626 30.848  8.154
 330 1 0 35.796 31.497  8.900
 331 1 0 37.333 33.009  7.158
 332 1 0 38.710 33.328  7.752
 333 1 0 40.115 33.041 10.074
 334 1 0 40.688 32.202 11.215
 335 1 0 39.653 35.405 32.612
 336 1 0 35.179 17.922 36.525
 337 1 0 36.480 35.497 40.146
 338 1 0 37.173 34.371 39.380
 339 1 0 40.059 35.387 35.354
 340 1 0 37.221 32.404 37.489
 341 1 0 36.964 32.199 35.992
 342 1 0 39.915 36.790 35.955
 343 1 0 28.587 39.305 17.809
 344 1 0 19.139 29.014 21.383
 345 1 0 29.032 39.331 16.338
 346 1 0 19.344 26.808 23.273
 347 1 0  9.611 12.996 33.833
 348 1 0  8.553 11.963 34.251
 349 1 0  8.496  9.533 32.922
 350 1 0  7.002  9.170 33.090
 351 1 0  6.722  6.773 34.466
 352 1 0  7.159  6.086 35.758
 353 1 0  8.678  6.596 38.052
 354 1 0  8.284  5.207 38.577
 355 1 0 32.924 28.045  1.732
 356 1 0 32.150 26.726  1.625
 357 1 0 29.611 26.940  2.717
 358 1 0 29.023 25.550  2.977
 359 1 0 26.678 24.050  2.761
 360 1 0 27.459 22.943  3.491
 361 1 0 25.770 21.296  5.198
 362 1 0 24.358 21.898  5.178
 363 1 0 23.145 19.943  6.907
 364 1 0 22.728 19.281  5.587
 365 1 0 21.671 17.095  4.181
 366 1 0 20.384 17.799  3.714
 367 1 0 18.609 15.903  4.724
 368 1 0  9.016 13.171 31.152
 369 1 0 15.208 15.064  6.937
 370 1 0  9.440 14.323 30.229
 371 1 0 11.526 15.788 31.544
 372 1 0 28.729 36.876 14.946
 373 1 0 18.779 27.291 24.617
 374 1 0 28.500 37.423 13.533
 375 1 0 19.161 24.819 26.040
 376 1 0 29.728 35.799 11.513
 377 1 0 17.692 24.574 25.672
 378 1 0 29.048 36.114 10.173
 379 1 0 15.469 22.871 25.503
 380 1 0 27.486 38.326  9.678
 381 1 0 14.617 23.598 26.559
 382 1 0 27.534 38.319  8.142
 383 1 0 14.135 21.368 28.158
 384 1 0 26.733 36.022  6.816
 385 1 0 14.508 20.511 29.371
 386 1 0 27.570 36.154  5.522
 387 1 0 14.118 19.656 31.932
 388 1 0 25.918 36.270  3.291
 389 1 0 12.806 18.905 32.208
 390 1 0 24.720 37.039  2.739
 391 1 0 12.354 16.631 30.569
 392 1 0 23.006 39.135  3.442
 393 1 0 22.323 38.988  2.073
 394 1 0 17.651 17.224 39.828
 395 1 0 33.029 24.829 16.362
 396 1 0 15.924 19.312 40.479
 397 1 0  8.847 27.604 19.679
 398 1 0 11.708 33.988 38.446
 399 1 0  8.630 27.790 18.168
 400 1 0 25.322 34.275 22.483
 401 1 0 10.523 26.277 16.553
 402 1 0 11.529 25.618 17.507
 403 1 0 25.323 36.579 23.944
 404 1 0 13.067 24.271 15.482
 405 1 0 25.579 37.370 25.226
 406 1 0 12.170 23.077 15.832
 407 1 0 11.212 20.498 15.279
 408 1 0 35.387 29.332 40.953
 409 1 0 11.835 19.817 16.511
 410 1 0  1.510  2.478 37.507
 411 1 0 13.196 17.828 15.113
 412 1 0  1.482  3.307 38.790
 413 1 0 14.485 17.325 14.459
 414 1 0  2.383  5.332 40.382
 415 1 0 16.724 15.767 14.427
 416 1 0 24.781 32.841 22.539
 417 1 0  7.950 30.238 19.914
 418 1 0 11.084 33.110 37.363
 419 1 0  7.748 31.374 20.922
 420 1 0 26.424 27.618 33.347
 421 1 0 27.464 28.693 33.687
 422 1 0 25.240 29.989 34.975
 423 1 0 24.876 30.914 33.805
 424 1 0 22.554 32.480 34.605
 425 1 0 21.996 32.069 35.978
 426 1 0 21.295 34.757 36.259
 427 1 0 20.714 35.770 37.250
 428 1 0 18.902 37.437 35.976
 429 1 0  2.623  6.846 40.344
 430 1 0 18.616 38.696 36.803
 431 1 0 20.151 40.243 40.327
 432 1 0 21.610 28.844 26.055
 433 1 0 11.229 31.580 35.108
 434 1 0  7.998 36.292 23.276
 435 1 0  6.718 35.565 22.868
 436 1 0 23.394 30.799 25.165
 437 1 0  5.258 34.000 21.174
 438 1 0  5.318 32.633 20.484
 439 1 0 23.550 32.310 24.965
 440 1 0 19.180 39.782 39.242
 441 1 0 16.498 14.247 14.402
 442 1 0  2.186  7.885 37.812
 443 1 0 14.884 13.306 12.264
 444 1 0  5.867 27.683 30.967
 445 1 0  5.688 29.057 30.314
 446 1 0  5.403 31.160 32.243
 447 1 0  5.730 32.489 31.548
 448 1 0  5.840 32.859 28.823
 449 1 0  5.715 34.390 28.780
 450 1 0  7.541 35.895 30.222
 451 1 0  6.689 37.157 30.497
 452 1 0  7.893 39.411 29.405
 453 1 0  4.382 26.111 29.128
 454 1 0 39.809 27.170 14.220
 455 1 0  9.407 40.511 25.128
 456 1 0 36.072 28.209 40.175
 457 1 0 36.108 26.264 38.261
 458 1 0 35.854 26.079 36.761
 459 1 0 34.867 28.396 35.600
 460 1 0 34.240 28.085 34.238
 461 1 0 34.045 29.016 31.613
 462 1 0 33.040 27.870 31.406
 463 1 0 30.953 28.520 29.483
 464 1 0  8.831 39.121 25.436
 465 1 0 25.668 25.313 31.938
 466 1 0  4.856 24.656 28.983
 467 1 0  4.971 23.185 31.278
 468 1 0  2.817  9.276 37.689
 469 1 0 15.491 11.909 12.096
 470 1 0  2.366 11.845 36.691
 471 1 0 13.522  9.927 11.448
 472 1 0  3.812 12.139 37.124
 473 1 0 14.246  8.726 10.823
 474 1 0  5.149 14.061 35.393
 475 1 0 16.955  8.260 10.980
 476 1 0  4.199 14.382 34.231
 477 1 0 21.068  1.874  5.762
 478 1 0 16.966  6.764 10.629
 479 1 0 15.795  5.969  8.247
 480 1 0  5.093 17.312 33.690
 481 1 0 15.386  4.524  8.619
 482 1 0  4.685 19.943 34.573
 483 1 0 16.624  2.690  6.938
 484 1 0  3.410 20.203 33.751
 485 1 0 18.006  2.295  6.422
 486 1 0  4.319 22.515 32.490
 487 1 0 20.690  3.037  6.692
 488 1 0  5.920 16.277 32.915
 489 1 0 25.562 24.389 33.165
 490 1 0 27.279 22.411 32.216
 491 1 0 28.683 21.803 32.156
 492 1 0 24.723 18.213 34.407
 493 1 0 19.935  5.900 31.688
 494 1 0 12.033  1.179 38.220
 495 1 0 17.501  7.125 31.822
 496 1 0 35.553  5.351 29.404
 497 1 0 16.657  7.107 30.537
 498 1 0 12.262  2.651 37.844
 499 1 0 16.153  4.527 29.464
 500 1 0 22.394 19.689 34.806
 501 1 0 21.357  5.771 31.136
 502 1 0 14.799  4.798 28.801
 503 1 0 14.493  3.400 26.316
 504 1 0 12.994  3.322 25.997
 505 1 0 11.853  2.601 33.777
 506 1 0 11.046  4.862 27.186
 507 1 0 22.422 20.423 33.453
 508 1 0  9.926  4.682 26.148
 509 1 0 12.071  5.080 32.542
 510 1 0  9.130  2.105 25.513
 511 1 0 37.034  5.295 29.770
 512 1 0 11.907  1.953 35.158
 513 1 0  8.621  2.330 24.070
 514 1 0 24.100  6.130 31.469
 515 1 0 24.401  4.704 31.963
 516 1 0 40.033  8.726 39.913
 517 1 0 40.202  7.785 38.721
 518 1 0 39.391  5.713 37.141
 519 1 0 28.875 11.144 31.446
 520 1 0 38.177  5.256 36.324
 521 1 0 32.818  8.817 32.697
 522 1 0 36.016  6.958 36.667
 523 1 0 29.619 13.330 33.148
 524 1 0 34.724  6.282 36.197
 525 1 0 26.233 18.056 34.605
 526 1 0 32.362  6.739 34.780
 527 1 0 31.968  5.316 35.211
 528 1 0 33.395  8.190 30.061
 529 1 0 29.101  5.001 35.612
 530 1 0 28.592 15.437 35.657
 531 1 0 28.451  6.381 35.437
 532 1 0 25.738  5.523 35.869
 533 1 0 28.403 16.952 35.837
 534 1 0 25.690  5.463 34.337
 535 1 0 33.202  6.656 30.102
 536 1 0 28.715 14.552 32.962
 537 1 0 31.140 29.987 29.070
 538 1 0 13.385  5.783 32.956
 539 1 0 22.274 23.019 34.506
 540 1 0 21.980 23.494 30.271
 541 1 0 13.971 29.517 36.283
 542 1 0 21.608 25.899 28.734
 543 1 0 22.742 25.642 27.731
 544 1 0 11.981 30.366 34.551
 545 1 0 22.770 27.856 25.841
 546 1 0 37.499  6.777 24.795
 547 1 0 36.804  7.854 25.642
 548 1 0 34.542  7.580 24.018
 549 1 0 20.867 22.945 29.370
 550 1 0 33.117  8.114 23.895
 551 1 0 32.002 11.284 25.258
 552 1 0 31.924 11.572 28.012
 553 1 0 31.854 12.994 28.593
 554 1 0 29.605 13.891 27.283
 555 1 0 28.760 15.098 27.711
 556 1 0 30.307 16.649 29.563
 557 1 0 29.800 18.090 29.688
 558 1 0 30.237 18.484 32.465
 559 1 0 30.534 19.934 32.878
 560 1 0 31.359  9.884 25.117
 561 1 0  5.934  1.653 23.861
 562 1 0 14.959 28.601 35.553
 563 1 0 18.008 21.241 29.024
 564 1 0  4.583  1.939 24.512
 565 1 0 12.356  8.075 34.125
 566 1 0  3.475  3.470 26.575
 567 1 0  2.088  2.952 26.167
 568 1 0 13.221  9.346 34.118
 569 1 0 22.904 24.395 34.759
 570 1 0 13.679  9.548 31.411
 571 1 0 38.851  6.462 31.549
 572 1 0 14.143 10.820 30.690
 573 1 0 19.345 20.794 28.406
 574 1 0 20.235 25.122 35.556
 575 1 0 16.075 13.706 32.061
 576 1 0 19.809 25.723 34.209
 577 1 0 15.317 15.916 33.674
 578 1 0 39.942  5.540 30.983
 579 1 0 16.419 16.962 33.905
 580 1 0 17.046 26.607 34.470
 581 1 0 17.552 18.041 31.670
 582 1 0 17.484 18.865 30.381
 583 1 0 16.423 26.239 35.827
 584 1 0 15.158 12.637 32.664
 585 1 0 28.947 30.085 27.208
 586 1 0  8.462 39.933 28.088
 587 1 0 30.798 29.110 23.557
 588 1 0 22.255 11.260 31.053
 589 1 0  1.953 38.052  3.018
 590 1 0 19.666 11.472 32.368
 591 1 0  2.578 38.170  4.416
 592 1 0 19.169 10.132 32.937
 593 1 0  4.921 37.035  3.392
 594 1 0 38.887 23.044  4.672
 595 1 0 37.788 22.701  5.690
 596 1 0 22.765  9.826 31.255
 597 1 0 36.622 21.030  3.773
 598 1 0 33.316 19.008  5.049
 599 1 0 32.458 20.140  5.664
 600 1 0 32.690 19.511  8.352
 601 1 0 31.550 19.926  9.297
 602 1 0 29.448 18.699  8.010
 603 1 0 28.087 18.388  8.648
 604 1 0 27.858 19.940 11.049
 605 1 0 26.405 20.098 11.508
 606 1 0 35.452 20.062  3.619
 607 1 0 26.800 19.955 14.316
 608 1 0 25.217 10.139 29.781
 609 1 0 24.123  8.908 25.908
 610 1 0 33.109  4.974 12.294
 611 1 0 10.721  3.352 15.854
 612 1 0  9.560  3.235 14.838
 613 1 0 32.926  3.162 14.382
 614 1 0  7.500  1.686 15.875
 615 1 0  6.598  1.576 17.102
 616 1 0 32.579  3.697 15.781
 617 1 0  6.120  2.869 19.537
 618 1 0 24.405  9.536 28.628
 619 1 0  4.975  1.878 19.797
 620 1 0 29.161  5.405 16.207
 621 1 0 30.037 29.801 26.167
 622 1 0 29.582  6.121 19.847
 623 1 0 29.884  4.423 22.103
 624 1 0 29.896  5.142 23.462
 625 1 0 27.740  6.719 24.016
 626 1 0 26.246  6.925 24.279
 627 1 0 24.169  7.379 26.080
 628 1 0 30.227  4.995 15.181
 629 1 0 25.783 20.742 15.158
 630 1 0 23.153 20.136 14.757
 631 1 0 21.964 19.173 14.801
 632 1 0  8.531 30.020 39.859
 633 1 0  7.303 36.057  7.276
 634 1 0  8.961 28.581 39.556
 635 1 0 14.587 13.637 37.707
 636 1 0 10.775 26.595 40.307
 637 1 0  7.243 38.182  9.053
 638 1 0 10.194 25.787 39.134
 639 1 0 14.891 12.669 40.241
 640 1 0 15.121 13.416 36.287
 641 1 0 12.158 24.050 37.868
 642 1 0 13.518 24.325 38.526
 643 1 0  7.248 37.871 10.559
 644 1 0 15.015 22.395 37.003
 645 1 0 31.781 39.669  2.208
 646 1 0 14.768 21.493 38.220
 647 1 0 39.729 31.280 14.742
 648 1 0 14.840 18.968 39.441
 649 1 0 39.914 29.895 14.124
 650 1 0 15.738 12.307 41.460
 651 1 0  5.766 30.218 39.877
 652 1 0  7.989 36.738  6.067
 653 1 0  5.304 31.676 39.764
 654 1 0 19.619 18.314 16.036
 655 1 0 18.652 19.114 15.146
 656 1 0 17.314 20.421 17.236
 657 1 0 16.963 21.704 18.000
 658 1 0 15.018 20.025 19.298
 659 1 0 13.833 20.406 18.400
 660 1 0 11.519 18.882 19.298
 661 1 0 11.857 17.877 20.412
 662 1 0  9.273 18.373 21.347
 663 1 0  8.311 18.065 22.499
 664 1 0  5.770 17.543 21.522
 665 1 0  4.710 17.639 22.626
 666 1 0  4.513 17.992 25.325
 667 1 0  4.794 18.762 26.614
 668 1 0 17.970 11.671 34.935
 669 1 0  6.336 36.670  3.835
 670 1 0  7.257 35.282 39.167
 671 1 0  6.324 34.207 39.722
 672 1 0 17.189 11.571 36.250
 673 1 0 10.779  6.099 16.203
 674 1 0 12.112  6.754 16.601
 675 1 0 30.353  5.293 18.813
 676 1 0 13.685  5.828 14.540
 677 1 0  6.093 13.943  7.639
 678 1 0  6.805 11.142  7.280
 679 1 0  6.858 10.361  8.604
 680 1 0  6.000  8.172  7.098
 681 1 0  5.551  6.712  7.212
 682 1 0  6.690  5.190  5.195
 683 1 0  5.964  3.851  5.020
 684 1 0  3.988  2.364  6.176
 685 1 0  2.563  2.174  6.692
 686 1 0 27.518 31.653 14.338
 687 1 0 28.738 30.042 12.303
 688 1 0 40.362 21.393 14.407
 689 1 0 40.272 20.437 13.218
 690 1 0 28.066 30.380 10.965
 691 1 0 39.592 18.054 12.077
 692 1 0 26.526 32.612 10.491
 693 1 0 32.743  4.052 11.107
 694 1 0 26.579 32.623  8.955
 695 1 0 36.186 18.048 13.328
 696 1 0 25.762 30.350  7.599
 697 1 0 35.145 16.934 13.479
 698 1 0 26.605 30.489  6.309
 699 1 0 32.402 16.422 13.373
 700 1 0  5.763 14.154  9.123
 701 1 0 24.962 30.648  4.074
 702 1 0  5.202 16.971  8.936
 703 1 0  8.934 18.709  9.807
 704 1 0 31.442 30.463 23.203
 705 1 0 29.959 30.917 20.888
 706 1 0 28.751 31.562 20.203
 707 1 0 27.608 33.482 18.637
 708 1 0 28.059 33.522 17.168
 709 1 0 27.738 31.086 15.745
 710 1 0 11.623 40.796 16.092
 711 1 0 11.292 39.296 16.057
 712 1 0 13.851 38.821 15.031
 713 1 0 14.749 37.658 14.617
 714 1 0 14.752 34.885 14.440
 715 1 0 13.528 34.387 13.635
 716 1 0 12.297 32.816 15.556
 717 1 0 11.430 31.638 15.084
 718 1 0 13.288 30.316 13.543
 719 1 0 13.186 28.848 13.107
 720 1 0 10.476 27.995 13.496
 721 1 0 10.128 26.751 12.672
 722 1 0  8.439 25.432 14.534
 723 1 0  7.345 24.551 13.910
 724 1 0  8.187 22.613 12.185
 725 1 0  8.956 21.330 11.862
 726 1 0  8.943 18.592 11.342
 727 1 0  6.661 17.120  9.387
 728 1 0 32.768 15.005 13.847
 729 1 0 38.379 17.133 11.900
 730 1 0 30.718 13.803 15.529
 731 1 0 15.031  6.433 14.120
 732 1 0 34.826  3.942  9.272
 733 1 0 15.949  8.117 16.252
 734 1 0 17.456  8.386 16.181
 735 1 0 36.324  3.656  9.190
 736 1 0 17.476 11.087 17.053
 737 1 0 18.754 11.525 17.787
 738 1 0 38.463  2.926 10.840
 739 1 0 21.103 11.171 16.446
 740 1 0 22.054 11.462 15.283
 741 1 0 23.773 31.434  3.527
 742 1 0 39.364  2.891  9.596
 743 1 0 24.327 12.746 14.308
 744 1 0 25.292 11.564 14.510
 745 1 0 24.304 27.205 21.261
 746 1 0 27.908 13.203 17.370
 747 1 0 22.075 33.538  4.250
 748 1 0 27.182 12.963 16.041
 749 1 0 21.396 33.414  2.877
 750 1 0 29.631 14.861 15.768
 751 2 0 13.611 35.530 19.757
 752 2 0 17.100 31.288 33.100
 753 2 0  6.691  8.446 32.308
 754 2 0  7.647 37.975 16.687
 755 2 0 13.672 34.323 27.702
 756 2 0 16.633 34.142 30.075
 757 2 0 14.114 31.913 23.408
 758 2 0  7.233  4.964 38.317
 759 2 0  6.405 10.089 32.913
 760 2 0  7.839 36.526 18.728
 761 2 0  9.864 35.211 15.223
 762 2 0 15.718 35.725 31.831
 763 2 0 12.678 32.535 30.910
 764 2 0 12.262 34.872 25.629
 765 2 0 10.544  8.857 31.959
 766 2 0 14.928 31.845 31.166
 767 2 0  9.243 35.467 20.606
 768 2 0  8.572 10.259 32.078
 769 2 0  8.563 34.470 17.223
 770 2 0 13.224 31.853 27.715
 771 2 0 16.568 31.468 30.633
 772 2 0  8.136 12.260 35.236
 773 2 0 16.031 33.289 38.638
 774 2 0 15.760 32.448 33.381
 775 2 0 12.991 33.222 25.825
 776 2 0 15.563 34.039 35.362
 777 2 0 19.336 31.339 39.879
 778 2 0  6.419  6.318 36.553
 779 2 0  9.557 31.799 27.561
 780 2 0 19.355 32.859 38.905
 781 2 0 11.576 34.638 20.532
 782 2 0  9.675  6.859 38.462
 783 2 0  7.481 39.773 19.388
 784 2 0  7.172  4.984 35.606
 785 2 0 20.255 31.336 37.320
 786 2 0 10.035 33.910 26.286
 787 2 0 13.824 35.751 22.152
 788 2 0 18.674 28.393 37.187
 789 2 0 16.926 31.914 40.559
 790 2 0 20.055 30.148 35.075
 791 2 0 13.303 35.865 23.848
 792 2 0  5.306  6.462 32.599
 793 2 0  8.078  8.030 39.849
 794 2 0  7.287  5.774 40.665
 795 2 0  9.996 35.533 18.985
 796 2 0 18.184 33.039 41.163
 797 2 0  8.945  4.441 38.118
 798 2 0  8.820 39.130 17.390
 799 2 0  7.473  6.564 33.680
 800 2 0 16.849 31.910 35.484
 801 2 0 13.402 34.366 29.443
 802 2 0 12.835 33.510 21.908
 803 2 0 18.276 30.111 35.281
 804 2 0 25.038 35.682 26.812
 805 2 0 11.552 11.944 34.774
 806 2 0  5.791 22.542 30.893
 807 2 0  5.430 24.138 31.616
 808 2 0  3.256 23.270 34.477
 809 2 0  5.103 22.450 33.270
 810 2 0  2.758 20.915 34.299
 811 2 0  2.831 19.261 33.652
 812 2 0  5.582 19.196 36.634
 813 2 0  5.164 20.914 34.814
 814 2 0  4.095 17.402 33.216
 815 2 0  4.984 16.988 34.742
 816 2 0  7.998 15.188 32.618
 817 2 0  6.119 16.696 31.904
 818 2 0  3.524 13.524 34.076
 819 2 0  3.544 15.239 34.483
 820 2 0  5.305 11.868 34.411
 821 2 0  5.798 14.940 35.545
 822 2 0  3.915 11.905 38.207
 823 2 0  4.526 11.467 36.610
 824 2 0  0.877 11.255 34.947
 825 2 0  1.765 12.780 36.767
 826 2 0  3.548  9.420 38.512
 827 2 0  3.372  9.319 36.730
 828 2 0  2.040  7.551 35.466
 829 2 0  5.910 24.573 29.317
 830 2 0  2.997  7.137 37.728
 831 2 0  3.445 24.321 27.089
 832 2 0  5.020 26.779 28.515
 833 2 0  8.861 41.302 25.683
 834 2 0  7.137 38.874 23.789
 835 2 0  9.300 38.385 24.750
 836 2 0  7.646 40.423 27.516
 837 2 0  9.244 40.697 28.299
 838 2 0  7.393 40.111 31.606
 839 2 0  8.700 38.900 29.963
 840 2 0  7.085 37.705 31.378
 841 2 0  5.667 36.827 30.775
 842 2 0  9.623 34.854 30.621
 843 2 0  7.239 35.120 30.965
 844 2 0  5.055 34.669 27.932
 845 2 0  5.216 34.754 29.700
 846 2 0  7.791 32.604 27.450
 847 2 0  4.829 32.422 28.966
 848 2 0  4.782 32.960 31.214
 849 2 0  6.180 33.181 32.290
 850 2 0  7.111 31.440 33.872
 851 2 0  4.736 31.416 33.098
 852 2 0  6.658 29.587 30.314
 853 2 0  5.386 28.944 29.253
 854 2 0  7.270 25.797 31.232
 855 2 0  6.076 27.836 32.046
 856 2 0  3.344 26.188 28.733
 857 2 0 10.475 40.542 25.434
 858 2 0  3.632  7.081 39.942
 859 2 0  4.630  4.970 41.080
 860 2 0 15.732 11.704 32.803
 861 2 0 14.809 12.951 33.669
 862 2 0 18.243 14.649 32.031
 863 2 0 16.326 13.402 31.023
 864 2 0 15.455 15.062 34.368
 865 2 0 14.332 16.378 33.908
 866 2 0 15.110 18.061 35.569
 867 2 0 17.412 16.500 33.733
 868 2 0 18.520 18.227 32.181
 869 2 0 17.526 16.966 31.394
 870 2 0 16.470 18.597 28.249
 871 2 0 18.297 18.490 29.728
 872 2 0 17.172 20.903 28.377
 873 2 0 17.959 22.350 29.046
 874 2 0 20.765 20.877 26.511
 875 2 0 19.314 19.700 28.229
 876 2 0 19.899 23.382 29.687
 877 2 0 21.075 23.213 28.317
 878 2 0 24.263 23.451 30.890
 879 2 0 21.809 23.097 31.296
 880 2 0 21.427 26.984 28.795
 881 2 0 20.658 25.454 28.377
 882 2 0 23.817 27.540 28.750
 883 2 0 13.560 10.867 29.743
 884 2 0  2.579  7.240 41.383
 885 2 0 15.698  9.641 29.333
 886 2 0 12.585  9.619 31.594
 887 2 0  1.319  5.150 40.650
 888 2 0  0.485  3.787 38.892
 889 2 0  1.644  2.637 39.663
 890 2 0  2.533  2.100 37.314
 891 2 0  0.840  1.601 37.628
 892 2 0  2.103  4.197 35.973
 893 2 0 10.207  1.372 39.737
 894 2 0 12.979  0.613 38.077
 895 2 0 11.251  0.719 37.580
 896 2 0 10.700  3.795 39.221
 897 2 0 12.933  3.108 38.601
 898 2 0 10.886  1.959 35.596
 899 2 0 12.234  0.894 35.059
 900 2 0 11.379  2.094 31.517
 901 2 0 12.874  2.618 33.351
 902 2 0 12.263  4.354 31.724
 903 2 0 11.391  5.848 32.118
 904 2 0 15.742  5.652 32.885
 905 2 0 13.607  6.558 32.185
 906 2 0 11.536  8.207 34.861
 907 2 0 11.873  7.942 33.136
 908 2 0 14.838  8.706 35.771
 909 2 0 12.584 10.209 33.830
 910 2 0 13.827  8.678 30.738
 911 2 0  7.969 41.221 23.367
 912 2 0 37.833 30.824 16.103
 913 2 0 40.156 32.042 14.057
 914 2 0 21.132 28.369 23.680
 915 2 0 19.204 25.715 23.227
 916 2 0 19.063 29.047 20.274
 917 2 0 20.223 29.053 21.604
 918 2 0 18.206 31.789 23.742
 919 2 0 17.361 29.957 22.208
 920 2 0 20.308 31.096 19.463
 921 2 0 20.740 31.401 21.177
 922 2 0 21.268 33.677 22.195
 923 2 0 21.593 33.189 19.774
 924 2 0 21.471 32.661 17.534
 925 2 0 20.217 33.169 16.360
 926 2 0 23.223 33.457 15.790
 927 2 0 20.857 35.599 16.782
 928 2 0 21.619 37.272 18.286
 929 2 0 22.972 37.279 17.091
 930 2 0 24.603 37.216 19.075
 931 2 0 23.624 38.710 18.932
 932 2 0 23.323 36.057 20.917
 933 2 0  6.643 10.404 29.307
 934 2 0  9.330  8.808 30.423
 935 2 0  8.328  8.617 28.938
 936 2 0  8.215 12.078 28.258
 937 2 0 17.691 27.093 24.681
 938 2 0  9.971 11.146 29.633
 939 2 0 18.888 28.386 24.675
 940 2 0 21.430 24.223 25.735
 941 2 0  9.127 13.994 33.759
 942 2 0  8.126 13.491 31.735
 943 2 0  8.689 12.313 30.528
 944 2 0 10.034 12.856 28.455
 945 2 0  8.562 14.534 29.578
 946 2 0 11.880 14.742 31.509
 947 2 0 11.676 16.142 32.584
 948 2 0 14.494 17.042 29.649
 949 2 0 12.107 16.310 29.536
 950 2 0 13.005 18.020 32.848
 951 2 0 12.123 19.577 32.773
 952 2 0 13.846 20.978 33.899
 953 2 0 14.834 18.980 31.421
 954 2 0 15.614 20.449 29.457
 955 2 0 14.133 19.481 29.194
 956 2 0 12.341 21.412 26.601
 957 2 0 14.522 20.835 27.268
 958 2 0 13.542 23.485 26.305
 959 2 0 14.834 24.686 26.529
 960 2 0 16.020 22.679 23.207
 961 2 0 15.124 21.820 25.420
 962 2 0 17.050 25.215 26.309
 963 2 0 17.531 24.819 24.606
 964 2 0 19.315 24.440 27.074
 965 2 0  9.580  8.483 26.932
 966 2 0 10.477  7.295 27.944
 967 2 0 12.169  6.230 24.671
 968 2 0 27.719 22.485 19.864
 969 2 0 29.272 21.548 19.859
 970 2 0 30.408 23.211 23.434
 971 2 0 28.201 23.172 22.234
 972 2 0 30.725 24.898 18.747
 973 2 0 29.781 23.413 18.650
 974 2 0 32.769 25.311 20.042
 975 2 0 31.500 22.253 20.064
 976 2 0 34.499 23.350 16.958
 977 2 0 34.077 24.468 18.257
 978 2 0 31.815 26.809 15.905
 979 2 0 32.190 24.303 15.851
 980 2 0 36.276 25.051 16.363
 981 2 0 35.203 26.292 17.088
 982 2 0 35.160 28.765 16.470
 983 2 0 37.184 27.345 16.158
 984 2 0 38.805 25.802 15.609
 985 2 0 39.157 25.120 13.990
 986 2 0 41.349 26.284 15.804
 987 2 0 39.688 27.468 13.155
 988 2 0 39.256 29.803 13.234
 989 2 0 40.971 29.777 13.798
 990 2 0 40.271 31.349 15.706
 991 2 0 26.645 18.642 20.178
 992 2 0 29.103 18.599 19.552
 993 2 0 26.198 21.284 18.646