### # LAMMPS data file written by PSP ###
6425 atoms
6428 bonds
5 atom types
0.0 50.36593026520063 xlo xhi
0.0 50.36593026520063 ylo yhi
0.0 50.36593026520063 zlo zhi

Masses

1 12.011
2 1.008
3 14.007
4 15.999
5 32.067

Atoms

   1 1 0 40.127  4.548 49.569
   2 1 0 33.210 44.710 18.356
   3 1 0 33.164 43.251 20.972
   4 1 0 30.467 44.332 20.967
   5 1 0 29.540 42.270 22.751
   6 1 0 26.893 43.054 24.175
   7 1 0 45.118 41.636 46.151
   8 1 0 25.215 45.145 22.746
   9 1 0 46.547 42.054 46.572
  10 1 0 22.811 45.306 24.630
  11 1 0 24.107 44.471 27.010
  12 1 0 47.486 35.360 46.961
  13 1 0 22.107 45.741 28.735
  14 1 0 47.205 36.055 45.619
  15 1 0 21.801 43.726 30.732
  16 1 0 18.811 42.635 30.139
  17 1 0 50.687 32.294 42.744
  18 1 0 16.841 43.205 32.400
  19 1 0 49.350 33.117 42.791
  20 1 0 14.495 44.780 32.509
  21 1 0 13.558 46.448 34.832
  22 1 0 45.371 32.219 40.703
  23 1 0 11.730 47.465 32.741
  24 1 0 45.595 32.522 39.256
  25 1 0  9.116 47.221 34.071
  26 1 0  7.717 48.419 31.754
  27 1 0 47.578 28.287 39.742
  28 1 0  4.921 48.628 32.471
  29 1 0 33.954 42.045 17.425
  30 1 0 35.976 43.338 15.714
  31 1 0 37.884 41.353 14.512
  32 1 0 38.340 42.450 11.942
  33 1 0 20.701 29.164 21.535
  34 1 0 45.043  8.480 48.428
  35 1 0 19.822 32.071 21.577
  36 1 0 44.411  8.471 47.015
  37 1 0 22.119 34.154 21.766
  38 1 0 24.623 33.100 20.812
  39 1 0 25.708 35.769 20.436
  40 1 0 28.258 34.227 20.744
  41 1 0 28.640 36.199 22.862
  42 1 0 31.434 36.453 21.959
  43 1 0 32.829 38.793 23.223
  44 1 0 35.451 37.791 23.594
  45 1 0 38.108 36.796 23.272
  46 1 0 48.774 27.630 39.140
  47 1 0 40.625 38.262 23.240
  48 1 0 41.417 42.920 25.299
  49 1 0 43.920 41.644 24.147
  50 1 0 44.924 39.777 26.156
  51 1 0 47.527 40.936 25.541
  52 1 0 46.267 42.641 27.441
  53 1 0 45.866 39.690  2.400
  54 1 0 46.076 42.494  1.958
  55 1 0 43.606 42.030  3.437
  56 1 0 45.333 42.047  5.792
  57 1 0 44.485 39.703  7.527
  58 1 0 42.007 40.871  8.525
  59 1 0 41.517 43.881  8.072
  60 1 0 39.117 44.059  9.714
  61 1 0 39.660 40.614 24.983
  62 1 0  3.489 48.142 32.147
  63 1 0  2.392 48.990 32.827
  64 1 0 51.699 26.351 34.864
  65 1 0 39.790 43.068 14.807
  66 1 0 39.588 45.213 10.628
  67 1 0 49.094  6.535 13.555
  68 1 0 41.050 45.238 10.940
  69 1 0 48.220  7.402 12.594
  70 1 0 42.606 41.047  9.934
  71 1 0 42.381 39.705 10.720
  72 1 0 49.066  9.083  7.309
  73 1 0 45.703 42.884  7.061
  74 1 0 48.010  8.208  7.970
  75 1 0 46.994 42.413  7.749
  76 1 0 46.764 43.576  1.083
  77 1 0 46.081 10.253  1.914
  78 1 0 49.141  9.595 17.889
  79 1 0 46.531 45.036  1.540
  80 1 0 46.120 10.611  4.469
  81 1 0 45.982 11.336  7.267
  82 1 0 46.923  8.994  8.814
  83 1 0 46.378 10.343 11.371
  84 1 0 47.090  8.234 13.320
  85 1 0 48.685 10.515 14.463
  86 1 0 49.944 10.593 16.994
  87 1 0 50.315 12.847 19.018
  88 1 0 48.828 12.299 21.841
  89 1 0 46.846 14.351 21.879
  90 1 0 47.892 16.051 24.025
  91 1 0 47.300 18.446 22.629
  92 1 0 47.198 20.337 25.031
  93 1 0 46.797 10.915  3.112
  94 1 0 46.630 14.847 46.757
  95 1 0 39.034 41.944 15.430
  96 1 0 34.408 39.567 16.622
  97 1 0  8.135 46.233 34.825
  98 1 0 50.490 26.572 33.910
  99 1 0  7.346 45.296 33.921
 100 1 0 12.688 45.400 35.631
 101 1 0 47.289 20.345 34.919
 102 1 0 13.522 44.384 36.475
 103 1 0 48.516 21.039 34.231
 104 1 0 17.829 43.856 33.421
 105 1 0 18.445 42.805 34.297
 106 1 0 51.669 20.916 28.550
 107 1 0 22.235 43.251 32.154
 108 1 0 51.034 20.168 29.691
 109 1 0 23.773 43.008 32.166
 110 1 0 50.079  8.693 18.638
 111 1 0 24.569 43.349 27.992
 112 1 0 25.307 42.220 27.246
 113 1 0 46.126 20.867 26.048
 114 1 0 26.365 46.089 22.247
 115 1 0 27.390 46.499 23.295
 116 1 0 49.960 15.759 25.509
 117 1 0 29.335 40.731 22.815
 118 1 0 48.917 15.040 24.631
 119 1 0 28.125 40.271 22.048
 120 1 0 34.168 42.659 22.020
 121 1 0 49.242 10.855 23.892
 122 1 0 35.007 43.766 22.748
 123 1 0 49.202 10.866 22.335
 124 1 0 33.620 40.896 16.433
 125 1 0 45.558 19.836 27.012
 126 1 0 17.981 27.767 21.451
 127 1 0 45.169 14.405 46.936
 128 1 0 16.493 29.852 20.236
 129 1 0 48.897 40.548 24.921
 130 1 0 44.913 13.631 48.271
 131 1 0 45.155 16.203 49.867
 132 1 0 43.303 43.144 22.125
 133 1 0 42.607 17.368 49.060
 134 1 0 43.325 41.720 22.703
 135 1 0 41.088 16.087 46.703
 136 1 0 39.036 18.144 46.497
 137 1 0 37.750 42.177 24.505
 138 1 0 39.174 20.902 47.230
 139 1 0 38.882 41.307 23.848
 140 1 0 39.493 23.714 47.295
 141 1 0 37.236 24.643 45.544
 142 1 0 42.961 11.955 49.652
 143 1 0 38.453 37.803 20.927
 144 1 0 37.941 36.657 21.741
 145 1 0 34.596 27.306 43.978
 146 1 0 35.423 30.174 44.242
 147 1 0 34.063 39.209 20.995
 148 1 0 32.552 30.517 43.965
 149 1 0 32.850 39.510 21.809
 150 1 0 32.634 33.061 45.311
 151 1 0 30.118 34.784 44.718
 152 1 0 28.820 37.873 24.900
 153 1 0 27.652 33.234 43.857
 154 1 0 28.942 36.415 24.371
 155 1 0 25.637 35.518 43.570
 156 1 0 27.473 37.612 43.041
 157 1 0 36.033 27.153 46.515
 158 1 0 25.374 37.264 18.322
 159 1 0 48.821 39.583 23.713
 160 1 0 45.687 11.200 51.564
 161 1 0 15.805 36.295  8.869
 162 1 0 36.910 34.436 17.213
 163 1 0 15.620 37.004  7.482
 164 1 0 38.208 36.915 18.283
 165 1 0 20.106 36.121 12.880
 166 1 0 37.414 37.896 15.651
 167 1 0 19.370 37.014 13.921
 168 1 0 40.053 39.196 15.471
 169 1 0 21.472 41.457 11.843
 170 1 0 40.626 40.224 12.707
 171 1 0 22.517 42.134 11.023
 172 1 0 42.036 42.619 13.246
 173 1 0 27.211 41.907 10.885
 174 1 0 44.889  9.814 49.209
 175 1 0 43.944 44.596 14.027
 176 1 0 46.025 45.866 12.434
 177 1 0 26.070 45.304 14.640
 178 1 0 44.606 45.543  9.716
 179 1 0 24.787 45.167 15.537
 180 1 0 46.074 46.232  7.293
 181 1 0 29.460 48.337 13.909
 182 1 0 48.384 47.663  8.648
 183 1 0 28.639 49.636 13.918
 184 1 0 47.369 50.246  9.555
 185 1 0 35.165 49.564 15.722
 186 1 0 49.851 51.304  8.449
 187 1 0 35.374 49.186 14.235
 188 1 0 47.992 51.083  6.304
 189 1 0 26.943 43.348 10.589
 190 1 0 49.012 18.860 26.968
 191 1 0 25.446 39.278 41.735
 192 1 0 26.123 41.836 42.802
 193 1 0 29.372 38.259 44.635
 194 1 0  2.418 18.938 21.673
 195 1 0 28.338 32.168 42.932
 196 1 0 29.312 32.713 41.898
 197 1 0  1.841 12.464 23.199
 198 1 0 32.962 33.683 46.697
 199 1 0  2.718 13.630 23.706
 200 1 0 31.872 33.458 47.710
 201 1 0  3.335 14.469 22.562
 202 1 0 36.711 31.057 44.099
 203 1 0  5.302 16.484 21.892
 204 1 0 37.234 31.129 42.621
 205 1 0  3.815 18.856 20.930
 206 1 0  2.474 18.707 23.177
 207 1 0 35.955 26.723 48.006
 208 1 0 37.156 27.130 48.908
 209 1 0  5.280 22.817 19.177
 210 1 0 40.505 24.048 46.122
 211 1 0  7.167 23.956 21.225
 212 1 0 40.745 22.912 45.186
 213 1 0  8.023 26.644 21.421
 214 1 0 39.228 18.466 44.997
 215 1 0 10.706 27.878 22.191
 216 1 0 40.629 18.357 44.485
 217 1 0 12.084 29.561 19.793
 218 1 0 43.316 18.430 48.197
 219 1 0 14.425 28.022 19.253
 220 1 0 43.666 19.647 49.127
 221 1 0  6.310 20.297 20.335
 222 1 0 25.214 37.148 19.878
 223 1 0 28.421 38.754 43.527
 224 1 0  3.886 23.030 19.891
 225 1 0 23.609 42.445 44.749
 226 1 0 21.388 34.174 24.207
 227 1 0 21.920 44.820 43.843
 228 1 0 21.526 34.978 22.942
 229 1 0 19.229 45.010 42.996
 230 1 0 18.148 46.807 40.837
 231 1 0 21.766 30.069 19.319
 232 1 0 15.798 45.054 41.225
 233 1 0 21.966 29.299 20.616
 234 1 0 13.640 47.024 41.568
 235 1 0 11.596 44.893 41.778
 236 1 0 16.285 32.202 21.235
 237 1 0  9.027 46.206 42.009
 238 1 0 28.411 42.857 42.373
 239 1 0 15.621 31.144 20.332
 240 1 0  6.603 47.071 42.182
 241 1 0 11.743 31.833 18.703
 242 1 0 13.163 48.293 42.388
 243 1 0 11.025 30.541 19.196
 244 1 0 12.604 47.991 43.771
 245 1 0 17.802 48.108 41.664
 246 1 0  7.207 28.563 20.013
 247 1 0 19.041 48.991 42.018
 248 1 0  7.894 27.229 19.978
 249 1 0 22.776 45.270 42.616
 250 1 0 23.828 46.252 43.044
 251 1 0  3.349 24.495 19.823
 252 1 0 26.895 43.169 42.549
 253 1 0  7.805 46.449 42.925
 254 1 0 35.376 34.775 19.658
 255 1 0 49.484 20.274 29.693
 256 1 0 48.089 22.097 33.156
 257 1 0 14.223 10.614  2.348
 258 1 0 16.788  9.139  2.449
 259 1 0 16.140  6.344  2.830
 260 1 0 16.255  5.135  3.787
 261 1 0 15.889  3.792  3.116
 262 1 0 13.160  9.884  3.268
 263 1 0 13.674  9.464  4.638
 264 1 0 12.191 14.404  2.433
 265 1 0 11.063 15.413  2.823
 266 1 0 13.821 19.939  3.071
 267 1 0 12.647 20.746  3.545
 268 1 0 14.875 24.432  2.765
 269 1 0 14.805 25.971  2.534
 270 1 0 18.855 26.991  3.389
 271 1 0 19.180 28.072  4.439
 272 1 0 25.220 28.438  2.325
 273 1 0 24.393 29.217  1.312
 274 1 0 22.896 32.714  6.088
 275 1 0 23.439 31.748  7.106
 276 1 0 24.383 36.875  3.228
 277 1 0  9.843  3.300 31.769
 278 1 0 24.093 37.310  1.749
 279 1 0 11.113  2.528 31.340
 280 1 0 29.016 37.310  6.829
 281 1 0 28.394 38.415  7.732
 282 1 0  8.359  3.094 25.180
 283 1 0 30.405 42.287  4.661
 284 1 0 15.599 13.161  1.819
 285 1 0 13.316 15.016  1.507
 286 1 0 14.940 16.570  3.508
 287 1 0 14.540 19.261  4.281
 288 1 0  8.047 12.244 40.906
 289 1 0  6.083 14.544 40.622
 290 1 0  7.013 16.677 42.386
 291 1 0  4.212 16.882 43.168
 292 1 0  5.376 14.798 44.719
 293 1 0 41.979 50.551  9.053
 294 1 0 43.360 50.013  6.622
 295 1 0 41.771 47.653  7.259
 296 1 0 39.594 49.102  5.960
 297 1 0 37.147 48.792  7.732
 298 1 0 36.570 46.013  7.065
 299 1 0 38.020 44.750  4.656
 300 1 0 36.501 42.265  4.642
 301 1 0  8.841  4.327 25.961
 302 1 0 33.843 41.777  5.568
 303 1 0 30.568 38.951  4.197
 304 1 0 28.484 37.228  5.371
 305 1 0 28.513 35.700  2.884
 306 1 0 25.553 35.838  3.335
 307 1 0 25.886 32.958  3.145
 308 1 0 23.487 32.490  4.669
 309 1 0 22.376 29.619  4.255
 310 1 0 24.409 27.556  3.338
 311 1 0 22.655 25.051  3.260
 312 1 0 20.155 26.321  2.843
 313 1 0 18.938 23.910  1.705
 314 1 0 16.366 24.005  2.937
 315 1 0 16.500 21.495  4.977
 316 1 0 31.046 41.427  5.828
 317 1 0 31.389 42.752  3.641
 318 1 0 36.046 42.319  3.166
 319 1 0 10.531  7.014 21.015
 320 1 0  5.888 48.513  6.447
 321 1 0  5.403 45.722  7.040
 322 1 0  4.565 44.434  4.510
 323 1 0  4.129 41.854  5.856
 324 1 0  3.117 40.187  3.632
 325 1 0  5.283 38.368  4.660
 326 1 0  5.679 35.655  3.967
 327 1 0  6.596 33.246  5.601
 328 1 0  4.351 30.927  5.845
 329 1 0  3.768 30.953  8.638
 330 1 0  4.922 28.381  9.439
 331 1 0  6.031 29.443 11.822
 332 1 0  6.276 26.829 13.391
 333 1 0  6.957 49.628  6.384
 334 1 0  6.490 24.837 11.108
 335 1 0  5.915 21.375 14.627
 336 1 0  5.745 18.517 14.129
 337 1 0  6.013 18.495 17.114
 338 1 0  8.266 16.772 16.424
 339 1 0  7.452 15.018 18.648
 340 1 0  8.904 12.389 18.611
 341 1 0  9.272 11.876 21.371
 342 1 0  8.950 11.291 24.148
 343 1 0  9.079  8.718 25.507
 344 1 0 10.951  7.360 23.469
 345 1 0 11.464  4.503 23.744
 346 1 0 10.291  4.178 26.527
 347 1 0 12.195  5.367 28.394
 348 1 0  6.874 21.874 11.958
 349 1 0 10.227 13.444 39.387
 350 1 0  6.351 51.043  6.250
 351 1 0  6.762 45.425  3.483
 352 1 0 35.786 43.686  2.617
 353 1 0  9.845  7.105 22.425
 354 1 0 35.317 46.419  6.265
 355 1 0 34.115 46.508  7.273
 356 1 0  6.687 10.093 23.874
 357 1 0 38.697 49.118  4.679
 358 1 0  7.409 11.390 24.057
 359 1 0 37.909 50.426  4.501
 360 1 0 44.565 50.447  5.744
 361 1 0  6.740 11.229 19.406
 362 1 0 44.633 49.782  4.348
 363 1 0  7.542 11.672 18.230
 364 1 0 10.416 15.403 15.721
 365 1 0  5.277 45.155  3.291
 366 1 0  9.794 16.535 16.588
 367 1 0  5.269 17.573 12.973
 368 1 0  9.293 22.414 11.362
 369 1 0  8.088 21.573 11.035
 370 1 0  4.152 25.345 13.784
 371 1 0  5.400 25.982 14.380
 372 1 0  6.070 26.572  8.033
 373 1 0  5.082 27.756  8.017
 374 1 0  3.407 29.110  4.338
 375 1 0  3.794 30.616  4.420
 376 1 0  4.383 34.365  2.239
 377 1 0  4.275 35.128  3.527
 378 1 0  3.826 39.833  1.115
 379 1 0  3.809 40.793  2.347
 380 1 0  3.728 17.282 13.025
 381 1 0  9.636 15.961 37.707
 382 1 0 12.224 16.063 36.374
 383 1 0 14.036 13.932 35.798
 384 1 0 31.852 11.558 28.785
 385 1 0 33.491 10.651 26.532
 386 1 0 33.261  7.823 26.839
 387 1 0 36.253  6.998 27.763
 388 1 0 37.713  5.255 25.728
 389 1 0 40.054  5.690 24.202
 390 1 0 40.547  4.790 21.373
 391 1 0 42.830  6.643 21.693
 392 1 0 45.081  4.968 20.804
 393 1 0 47.003  7.190 21.165
 394 1 0 49.585  6.224 20.284
 395 1 0 51.028  5.882 20.723
 396 1 0 51.993  5.680 19.534
 397 1 0 33.669 13.621 29.478
 398 1 0  2.910 18.673 41.775
 399 1 0  3.014 17.867 43.092
 400 1 0 46.747  3.529 22.224
 401 1 0 41.173  3.359 21.610
 402 1 0  4.998 12.916 38.922
 403 1 0 40.128  2.253 21.963
 404 1 0  5.841 14.185 39.119
 405 1 0 36.562  5.085 24.685
 406 1 0 35.721  3.889 25.024
 407 1 0 10.846 11.161 38.538
 408 1 0 32.509  6.538 26.373
 409 1 0 10.017 12.457 38.222
 410 1 0 30.994  6.682 26.706
 411 1 0 31.135 10.207 29.098
 412 1 0 45.828  3.586 21.012
 413 1 0 10.441 15.322 34.670
 414 1 0 31.723 15.421 31.004
 415 1 0 27.365 14.479 33.667
 416 1 0 46.710 24.753 33.008
 417 1 0 49.280 25.614 34.093
 418 1 0 47.782 27.370 35.927
 419 1 0 49.534 28.526 38.076
 420 1 0 48.459 31.127 38.381
 421 1 0 46.826 33.402 38.939
 422 1 0 46.734 35.050 41.340
 423 1 0 49.641 34.518 42.218
 424 1 0 50.504 35.496 44.826
 425 1 0 48.118 37.298 45.359
 426 1 0 48.426 39.643 43.646
 427 1 0 47.685 41.146 46.032
 428 1 0  3.267  7.954  7.220
 429 1 0 29.678 13.368 31.916
 430 1 0 15.708 31.485 49.863
 431 1 0 17.801 31.713 47.176
 432 1 0 15.610 30.286 45.875
 433 1 0 15.950 27.344 46.548
 434 1 0 18.208 26.829 44.777
 435 1 0 18.928 28.952 42.661
 436 1 0 20.923 27.346 41.272
 437 1 0 21.123 24.504 41.073
 438 1 0 20.960 21.787 40.295
 439 1 0 22.658 21.740 37.817
 440 1 0 24.198 19.239 37.569
 441 1 0 24.852 20.051 34.842
 442 1 0 24.262 17.153 34.358
 443 1 0 26.946 17.298 33.254
 444 1 0 15.735 33.610 47.970
 445 1 0 47.369 22.119 30.341
 446 1 0 30.521 10.212 30.513
 447 1 0 30.754 16.615 30.689
 448 1 0 38.243 10.191 18.945
 449 1 0 42.853 10.451 16.332
 450 1 0 43.073 11.997 16.279
 451 1 0 47.504 15.162 17.628
 452 1 0 46.750 14.922 16.328
 453 1 0 50.599 20.366 15.975
 454 1 0 49.668 19.756 17.046
 455 1 0 48.304 19.300 16.477
 456 1 0 45.619 18.449 17.145
 457 1 0 45.347 15.649 16.224
 458 1 0 42.522 15.554 17.044
 459 1 0 41.740 12.838 16.169
 460 1 0 40.751 12.741 19.010
 461 1 0 38.242  8.691 18.998
 462 1 0 39.059 10.778 20.142
 463 1 0 33.918 10.114 21.022
 464 1 0 32.476 12.573 21.154
 465 1 0 30.562 11.945 23.283
 466 1 0 30.833 14.495 24.493
 467 1 0 28.169 14.550 25.995
 468 1 0 27.669 11.572 26.332
 469 1 0 25.099 10.824 27.909
 470 1 0 23.136 12.929 27.851
 471 1 0 21.006 11.087 28.566
 472 1 0 19.799 13.654 29.532
 473 1 0 19.672 12.111 32.007
 474 1 0 16.963 13.202 32.408
 475 1 0 15.494 11.808 34.626
 476 1 0 36.812 10.964 22.199
 477 1 0 11.696 16.095 34.921
 478 1 0 34.059  8.747 20.284
 479 1 0 30.752 10.395 23.304
 480 1 0 29.549 16.281 29.822
 481 1 0 13.317 12.008 33.255
 482 1 0 27.477 13.430 34.808
 483 1 0 14.519 11.176 33.547
 484 1 0 28.800 13.483 35.523
 485 1 0 23.028 16.191 34.271
 486 1 0 19.789 10.736 34.262
 487 1 0 22.107 16.498 33.039
 488 1 0 20.051 12.075 33.514
 489 1 0 24.682 19.205 39.046
 490 1 0 23.810 18.389 40.042
 491 1 0 19.659  9.597 26.899
 492 1 0 19.669 21.690 39.380
 493 1 0 32.733  7.944 20.434
 494 1 0 20.559  9.635 28.184
 495 1 0 20.323 27.469 39.853
 496 1 0 26.802 10.479 29.773
 497 1 0 18.831 27.539 39.784
 498 1 0 25.770  9.826 28.893
 499 1 0 17.328 25.992 43.827
 500 1 0 17.314 24.516 44.366
 501 1 0 25.926 14.239 24.676
 502 1 0 15.016 29.924 44.475
 503 1 0 26.696 15.022 25.731
 504 1 0 13.586 29.364 44.544
 505 1 0 15.304 35.084 47.735
 506 1 0 30.216  9.783 24.613
 507 1 0 15.504 35.603 46.291
 508 1 0 19.121 23.012 38.962
 509 1 0 11.723  2.967 29.981
 510 1 0 14.747 30.489 11.587
 511 1 0 14.252 31.623 10.731
 512 1 0 13.368 22.224 22.254
 513 1 0 14.323 21.993 21.092
 514 1 0  9.232 21.474 17.762
 515 1 0  8.328 21.370 18.960
 516 1 0 11.264 25.066 14.495
 517 1 0 12.680 25.230 13.839
 518 1 0  7.213 28.796 16.568
 519 1 0  6.215 28.594 15.391
 520 1 0  8.449 32.555 12.599
 521 1 0  9.287 33.788 12.542
 522 1 0  9.376 37.787 15.012
 523 1 0  9.730 38.245 13.633
 524 1 0  5.768 38.471 11.343
 525 1 0  4.877 37.292 10.809
 526 1 0  6.590 42.895 10.354
 527 1 0  6.640 42.803  8.821
 528 1 0  4.779 48.505 11.964
 529 1 0  6.247 48.487 12.453
 530 1 0 46.341 50.796 48.385
 531 1 0 46.529 49.361 48.933
 532 1 0 39.764 49.477 49.189
 533 1 0 40.517 49.535 47.851
 534 1 0 36.322 46.429 45.152
 535 1 0 37.339 47.627 45.117
 536 1 0 37.096 51.505 42.688
 537 1 0 37.388 51.117 41.274
 538 1 0 32.892 49.841 41.787
 539 1 0 11.922 16.396 20.012
 540 1 0 13.152 15.794 20.721
 541 1 0 14.536 11.897 19.690
 542 1 0 14.539 11.244 21.104
 543 1 0  5.044 15.458 47.430
 544 1 0 11.206 25.627 15.958
 545 1 0  2.980 13.774 48.615
 546 1 0 11.804 24.679 18.639
 547 1 0  3.042 16.207 50.092
 548 1 0 10.606 22.117 18.098
 549 1 0 11.560 19.932 20.089
 550 1 0 12.584 20.961 22.758
 551 1 0 13.213 18.318 24.163
 552 1 0 13.667 16.733 21.857
 553 1 0 15.273 14.770 23.326
 554 1 0 14.292 12.347 22.180
 555 1 0 12.659 11.043 24.652
 556 1 0 32.071 48.711 41.264
 557 1 0 13.874  8.433 25.666
 558 1 0 17.370  5.907 28.599
 559 1 0 17.131  7.059 31.313
 560 1 0 17.132  4.638 32.986
 561 1 0 17.015  6.239 35.472
 562 1 0 17.132  4.374 37.683
 563 1 0 16.365  3.794 38.894
 564 1 0 17.266  2.983 39.851
 565 1 0 16.441  3.233 33.231
 566 1 0 15.110  3.291 33.966
 567 1 0 16.661  4.500 28.712
 568 1 0 16.231  3.887 27.340
 569 1 0 15.028  8.283 24.623
 570 1 0 14.550  7.528 23.418
 571 1 0 15.009  7.719 28.155
 572 1 0 30.439 45.662 37.200
 573 1 0 30.859 46.739 36.159
 574 1 0 25.175 50.914 36.714
 575 1 0 17.594 47.720 20.887
 576 1 0 40.716 29.555 15.368
 577 1 0 17.227 49.505 23.563
 578 1 0 42.163 29.677 17.798
 579 1 0 19.557 51.152 23.504
 580 1 0 40.900 32.035 19.165
 581 1 0 21.038 50.047 25.778
 582 1 0 40.691 31.654 22.080
 583 1 0 23.521 50.152 24.413
 584 1 0 39.985 34.479 22.280
 585 1 0 25.361 50.170 26.856
 586 1 0 41.867 34.283 24.604
 587 1 0 23.589 48.769 28.887
 588 1 0 39.585 30.033 12.790
 589 1 0 39.520 35.329 25.961
 590 1 0 40.391 34.256 28.487
 591 1 0 26.999 50.182 32.215
 592 1 0 39.001 35.644 30.893
 593 1 0 26.817 49.713 35.077
 594 1 0 36.337 36.965 30.273
 595 1 0 29.654 50.660 34.900
 596 1 0 35.565 37.981 33.053
 597 1 0 30.094 48.090 36.214
 598 1 0 38.174 38.212 34.138
 599 1 0 32.024 49.456 37.975
 600 1 0 37.333 40.152 36.167
 601 1 0 32.860 47.737 40.292
 602 1 0 38.793 39.194 38.425
 603 1 0 24.866 48.322 31.683
 604 1 0 11.389 28.251 17.391
 605 1 0 15.460 48.254 18.771
 606 1 0 15.621 49.291 16.145
 607 1 0 25.686 49.543 36.149
 608 1 0 25.187 45.976 30.741
 609 1 0 24.524 46.811 31.803
 610 1 0 25.080 52.029 28.682
 611 1 0 26.030 51.232 27.799
 612 1 0 20.408 48.179 27.414
 613 1 0 19.872 49.241 26.434
 614 1 0 15.701 49.488 25.595
 615 1 0 15.746 49.394 24.041
 616 1 0 13.532 48.546 20.361
 617 1 0 14.580 49.270 19.567
 618 1 0 11.642 49.411 15.151
 619 1 0 12.650 50.061 14.150
 620 1 0 40.501 29.106 10.184
 621 1 0 14.277 48.529  9.005
 622 1 0 15.987 50.838  3.425
 623 1 0 16.510 50.134  4.697
 624 1 0 41.566 22.775  4.946
 625 1 0 16.289 50.961  5.984
 626 1 0 40.745 25.113  3.545
 627 1 0 16.975 51.223  8.784
 628 1 0 39.845 25.393  6.304
 629 1 0 14.489 50.780 10.328
 630 1 0 42.551 26.371  6.802
 631 1 0 15.859 51.329 12.874
 632 1 0 43.526 25.019  9.341
 633 1 0 13.631 51.110 14.807
 634 1 0 41.916 26.568 11.214
 635 1 0 13.563 49.756  9.551
 636 1 0  6.749 14.388 49.546
 637 1 0  8.711 28.515 16.260
 638 1 0  8.289 16.733 50.709
 639 1 0 36.897  4.687 40.617
 640 1 0 37.535  3.526 39.790
 641 1 0 34.434  3.555 35.484
 642 1 0 35.096  2.353 34.876
 643 1 0 33.074  3.170 31.081
 644 1 0 33.040  2.920 29.544
 645 1 0 29.004  4.034 28.743
 646 1 0 28.059  3.061 28.011
 647 1 0 23.877  7.795 26.924
 648 1 0 24.983  7.993 25.898
 649 1 0 23.425  2.407 23.989
 650 1 0 22.586  2.107 25.201
 651 1 0 23.005  4.418 19.143
 652 1 0 35.200  4.942 45.958
 653 1 0 23.929  5.364 18.298
 654 1 0 17.122  2.396 18.919
 655 1 0 16.397  4.924 14.276
 656 1 0 15.996  6.141 13.513
 657 1 0 12.295  9.035 13.698
 658 1 0 12.606  8.992 12.235
 659 1 0 10.829  5.055 10.705
 660 1 0 11.348  3.590 10.940
 661 1 0  8.351  7.380  7.594
 662 1 0  8.938  6.778  6.307
 663 1 0  2.610  9.177  6.524
 664 1 0  3.334 10.526  6.748
 665 1 0  2.827 11.423 47.477
 666 1 0  2.109 12.531 48.285
 667 1 0 17.187  3.741 19.697
 668 1 0  8.150 13.083 51.294
 669 1 0 36.264  5.686 45.164
 670 1 0 33.994  8.095 49.795
 671 1 0  4.633  7.235  9.693
 672 1 0  6.948  6.798  7.969
 673 1 0  8.211  4.175  8.833
 674 1 0  9.412  5.151 11.304
 675 1 0  9.534  8.195 11.774
 676 1 0 11.180  8.076 14.175
 677 1 0 13.067  6.082 14.964
 678 1 0 15.384  4.524 15.429
 679 1 0 16.939  6.260 17.325
 680 1 0 18.377  4.681 19.357
 681 1 0 19.792  7.128 20.085
 682 1 0 22.088  5.203 20.143
 683 1 0 22.287  6.283 22.833
 684 1 0 34.822  8.807 50.888
 685 1 0 23.652  3.929 23.775
 686 1 0 24.189  6.781 28.081
 687 1 0 26.071  6.600 30.485
 688 1 0 28.250  5.324 29.197
 689 1 0 30.185  6.260 31.190
 690 1 0 31.767  3.907 31.510
 691 1 0 30.980  2.966 34.507
 692 1 0 33.309  3.113 36.475
 693 1 0 33.713  4.654 38.811
 694 1 0 36.309  5.862 39.739
 695 1 0 34.447  7.266 41.559
 696 1 0 35.709  6.793 44.176
 697 1 0 33.659  8.414 45.565
 698 1 0 34.403  8.502 48.360
 699 1 0 25.199  4.448 26.418
 700 1 0 35.588 48.431 40.590
 701 1 0  7.958 13.431 49.810
 702 1 0 11.320 16.543 49.329
 703 1 0 37.552 24.869 38.597
 704 1 0 35.878 23.108 37.099
 705 1 0 33.464 23.140 38.761
 706 1 0 31.733 23.262 36.519
 707 1 0 29.214 22.154 37.851
 708 1 0 29.747 22.909 40.745
 709 1 0 27.496 22.165 42.752
 710 1 0  1.755 45.753 10.999
 711 1 0 25.843 20.015 41.784
 712 1 0  4.097 47.112 11.878
 713 1 0 24.880 19.429 44.462
 714 1 0  3.984 44.568 13.298
 715 1 0 22.617 18.302 42.853
 716 1 0 37.726 27.452 36.652
 717 1 0  5.247 43.484 10.899
 718 1 0  3.786 40.909 10.219
 719 1 0 19.094 18.036 44.862
 720 1 0  4.923 39.277 12.351
 721 1 0 17.095 18.691 47.007
 722 1 0  7.349 40.374 13.905
 723 1 0 14.700 17.638 45.925
 724 1 0  7.888 37.937 15.406
 725 1 0 12.606 15.967 44.935
 726 1 0  7.306 35.229 14.708
 727 1 0 10.314 14.863 46.354
 728 1 0  7.371 32.562 13.762
 729 1 0 10.145 17.082 48.488
 730 1 0  9.402 31.299 15.580
 731 1 0 21.120 20.153 44.543
 732 1 0 11.929 17.751 50.128
 733 1 0 40.532 27.964 35.565
 734 1 0 44.290 26.965 32.088
 735 1 0 13.358 13.865 46.219
 736 1 0 13.498 14.705 44.990
 737 1 0 17.057 16.199 47.675
 738 1 0 17.703 17.525 47.892
 739 1 0 19.859 22.003 45.950
 740 1 0 20.115 21.338 44.566
 741 1 0 26.078 17.906 46.212
 742 1 0 25.478 19.323 45.907
 743 1 0 26.959 24.642 42.482
 744 1 0 27.388 23.558 43.433
 745 1 0 29.281 19.803 39.006
 746 1 0 28.540 20.755 38.079
 747 1 0 32.992 24.344 40.973
 748 1 0 41.572 27.940 32.935
 749 1 0 34.085 23.777 40.045
 750 1 0 38.691 24.964 39.659
 751 1 0 41.780 27.330 37.655
 752 1 0 41.295 26.832 36.325
 753 1 0 45.542 28.632 33.703
 754 1 0 45.148 28.283 32.233
 755 1 0 45.121 31.388 27.561
 756 1 0 45.876 30.134 27.976
 757 1 0 46.124 31.088 21.373
 758 1 0 45.028 31.219 22.453
 759 1 0 44.977 30.011 23.417
 760 1 0 43.432 28.676 25.468
 761 1 0 45.019 28.801 27.964
 762 1 0 43.018 27.216 29.429
 763 1 0 38.206 24.317 40.990
 764 1 0 33.158 33.289 18.580
 765 1 0 36.434 38.034 40.314
 766 1 0 36.111 39.570 42.932
 767 1 0 21.915  7.368 48.301
 768 1 0 15.394  8.999 49.117
 769 1 0 15.274  8.445 47.677
 770 1 0 51.751 51.482 10.239
 771 1 0 51.167 51.994  8.899
 772 1 0 49.612 45.459  8.049
 773 1 0 48.961 46.301  9.158
 774 1 0 43.880 43.398  8.626
 775 1 0 44.961 44.051  9.560
 776 1 0 45.976 43.019 13.908
 777 1 0 44.841 43.548 14.725
 778 1 0 43.094 39.535 13.006
 779 1 0 41.740 39.107 12.552
 780 1 0 32.315 48.961 18.748
 781 1 0 33.910 48.939 16.390
 782 1 0 36.474 38.781 13.344
 783 1 0 32.369 46.465 16.418
 784 1 0 36.641 38.999 14.876
 785 1 0 30.250 48.091 15.237
 786 1 0 27.679 47.386 16.692
 787 1 0 38.398 32.373 16.624
 788 1 0 27.269 44.778 15.454
 789 1 0 37.204 33.290 16.185
 790 1 0 28.960 44.044 12.983
 791 1 0 27.545 41.576 12.358
 792 1 0 30.983 34.326 17.750
 793 1 0 24.842 40.857 12.934
 794 1 0 21.252  8.473 47.463
 795 1 0 26.217 11.616 47.363
 796 1 0 24.952 11.079 46.600
 797 1 0 24.430 10.337 42.108
 798 1 0 51.319 26.913 21.790
 799 1 0 43.734 21.941 38.974
 800 1 0 48.229 24.329 25.244
 801 1 0 42.763 19.312 38.573
 802 1 0 49.365 23.995 26.165
 803 1 0 41.759 16.861 37.503
 804 1 0 46.792 21.176 28.307
 805 1 0 43.230 14.505 36.626
 806 1 0 46.718 19.957 29.273
 807 1 0 45.672 14.937 38.458
 808 1 0 42.676 20.337 30.572
 809 1 0 47.997 13.215 38.101
 810 1 0 42.345 20.401 32.077
 811 1 0 32.095 33.358 17.448
 812 1 0 46.668 11.159 36.304
 813 1 0 44.919  9.552 38.002
 814 1 0 36.832 17.937 30.738
 815 1 0 46.051  7.285 36.558
 816 1 0 38.400 18.864 36.566
 817 1 0 47.854  7.937 38.663
 818 1 0 38.017 20.319 36.552
 819 1 0 36.364 14.130 37.637
 820 1 0 36.504 12.728 36.946
 821 1 0 32.000 16.967 40.382
 822 1 0 32.596 16.803 41.810
 823 1 0 30.047 12.169 42.524
 824 1 0 28.954 11.223 42.159
 825 1 0 24.325 11.692 41.484
 826 1 0 36.152 19.293 30.855
 827 1 0 22.049 40.400 12.875
 828 1 0 21.803 38.280 10.761
 829 1 0 33.793 32.799 23.287
 830 1 0  8.908  4.884  2.578
 831 1 0 15.570 26.981 38.375
 832 1 0  8.651  3.690  1.632
 833 1 0 17.803 27.283 36.558
 834 1 0  5.682  9.571  2.715
 835 1 0 17.859 24.865 34.851
 836 1 0  6.099  8.904  4.017
 837 1 0 20.305 25.769 33.487
 838 1 0  4.608 14.145  2.685
 839 1 0 20.846 23.498 31.670
 840 1 0  3.414 15.033  3.162
 841 1 0 21.004 25.758 29.689
 842 1 0  5.962 19.484  4.520
 843 1 0 14.196 27.548 38.800
 844 1 0 21.990 25.616 27.042
 845 1 0 23.599 27.588 25.358
 846 1 0  6.861 23.972  5.180
 847 1 0 26.527 26.483 24.530
 848 1 0  6.750 25.524  5.245
 849 1 0 28.256 28.275 25.924
 850 1 0 10.673 26.448  6.634
 851 1 0 29.399 29.760 23.670
 852 1 0 10.869 27.311  7.897
 853 1 0 29.225 32.248 25.019
 854 1 0 17.042 28.218  6.433
 855 1 0 31.358 33.756 23.429
 856 1 0 16.271 29.162  5.521
 857 1 0 31.264 32.231 20.803
 858 1 0  4.724 20.155  5.036
 859 1 0 41.322 23.608 38.320
 860 1 0  8.825  6.254  1.866
 861 1 0  9.391  9.083  2.090
 862 1 0 19.699 36.314 11.393
 863 1 0 32.904 34.013 23.512
 864 1 0 19.991 35.303  8.670
 865 1 0 17.002 35.284  8.877
 866 1 0 29.021 29.494 21.150
 867 1 0 17.461 32.505  8.165
 868 1 0 28.964 28.794 22.523
 869 1 0 14.966 31.694  9.353
 870 1 0 14.006 28.935  8.297
 871 1 0 27.462 24.819 22.851
 872 1 0 16.187 27.137  7.182
 873 1 0 26.373 25.046 23.941
 874 1 0 14.545 24.657  6.468
 875 1 0 13.698 26.986 40.150
 876 1 0 12.039 25.927  6.085
 877 1 0 11.015 23.759  4.401
 878 1 0 22.993 24.418 27.035
 879 1 0  8.349 23.554  5.398
 880 1 0  8.413 20.696  6.918
 881 1 0 19.362 22.017 30.068
 882 1 0  6.606 18.598  5.635
 883 1 0 19.416 22.908 31.350
 884 1 0  7.173 16.120  4.395
 885 1 0  5.780 14.951  1.998
 886 1 0 15.354 25.404 34.307
 887 1 0  8.101 13.123  2.145
 888 1 0 16.382 24.333 34.642
 889 1 0  6.788 10.491  2.050
 890 1 0 22.738 23.530 25.852
 891 1 0 50.251 27.440 20.780
 892 1 0 41.110 25.987 40.048
 893 1 0 49.349 32.558 18.669
 894 1 0 41.202 29.060 22.091
 895 1 0 43.433 30.573 17.485
 896 1 0 43.356 31.302 16.187
 897 1 0 40.187 31.455 12.717
 898 1 0 41.484 31.572 11.982
 899 1 0 43.160 27.315 11.734
 900 1 0 43.795 26.445 12.879
 901 1 0 43.367 27.661  7.145
 902 1 0 44.882 27.495  6.950
 903 1 0 40.479 25.697  2.131
 904 1 0 40.195 27.218  2.092
 905 1 0 44.603  6.586 34.495
 906 1 0 45.634  6.163 35.569
 907 1 0 40.146 30.200 22.010
 908 1 0 48.053 12.395 34.494
 909 1 0 47.200 16.932 38.509
 910 1 0 46.299 16.039 37.582
 911 1 0 42.637 17.271 35.117
 912 1 0 41.536 17.486 36.107
 913 1 0 44.030 21.457 36.456
 914 1 0 44.371 22.368 37.586
 915 1 0 42.894 25.225 41.844
 916 1 0 41.409 25.241 41.379
 917 1 0 41.911 30.506 36.680
 918 1 0 41.881 30.179 38.214
 919 1 0 39.136 32.436 43.655
 920 1 0 39.870 32.709 42.369
 921 1 0 34.770 33.490 39.104
 922 1 0 46.663 12.169 35.110
 923 1 0 34.073 32.888 40.315
 924 1 0 44.193 35.461 24.459
 925 1 0 39.407 32.186 29.601
 926 1 0 39.674 49.789 43.519
 927 1 0 33.974 41.101 43.973
 928 1 0 38.689 47.080 44.612
 929 1 0 34.197 43.628 45.592
 930 1 0 39.476 46.303 47.310
 931 1 0 31.303 43.700 44.985
 932 1 0 41.611 48.427 47.704
 933 1 0 30.147 44.119 47.659
 934 1 0 43.913 47.626 46.095
 935 1 0 27.402 44.245 46.558
 936 1 0 45.468 48.332 48.458
 937 1 0 25.630 44.816 48.774
 938 1 0 44.526 45.670 48.826
 939 1 0 43.406 34.171 24.880
 940 1 0 24.467 44.276 49.639
 941 1 0 30.094 43.575 49.146
 942 1 0 29.197 42.363 49.355
 943 1 0 34.270 43.047 47.060
 944 1 0 35.668 42.468 47.451
 945 1 0 37.302 40.569 42.774
 946 1 0 38.560 39.978 43.339
 947 1 0 40.085 39.363 39.283
 948 1 0 41.333 39.108 38.387
 949 1 0 39.396 37.607 34.899
 950 1 0 39.811 36.248 34.302
 951 1 0 36.682 37.574 28.869
 952 1 0 37.979 38.365 28.787
 953 1 0 40.668 32.898 29.191
 954 1 0 23.809 45.362 50.518
 955 1 0 38.076 49.745 41.084
 956 1 0 36.987 38.163 42.496
 957 1 0 18.208 11.042 51.473
 958 1 0 41.397 20.540 29.701
 959 1 0 27.465 49.080 44.398
 960 1 0 42.715 21.214 27.171
 961 1 0 28.721 46.679 45.707
 962 1 0 45.358 21.757 28.103
 963 1 0 31.419 45.859 45.493
 964 1 0 45.586 24.956 27.662
 965 1 0 32.703 43.094 45.338
 966 1 0 47.662 25.748 25.570
 967 1 0 34.256 42.551 42.550
 968 1 0 47.425 27.058 23.075
 969 1 0 32.698 40.456 41.398
 970 1 0 49.013 26.478 20.585
 971 1 0 25.017 47.694 45.312
 972 1 0 34.586 38.224 41.604
 973 1 0 32.576 36.394 42.409
 974 1 0 48.534 30.177 17.940
 975 1 0 33.985 33.808 41.583
 976 1 0 46.114 31.537 16.913
 977 1 0 36.887 34.690 41.744
 978 1 0 47.014 33.638 15.137
 979 1 0 38.985 32.488 41.111
 980 1 0 47.073 35.166 14.908
 981 1 0 37.888 30.374 39.491
 982 1 0 47.494 35.549 13.473
 983 1 0 40.536 29.511 38.664
 984 1 0 49.721 31.222 18.043
 985 1 0 39.022 26.958 38.254
 986 1 0 46.919 28.218 19.427
 987 1 0 35.878 39.051 41.896
 988 1 0 39.047 21.984 29.040
 989 1 0 37.106 20.537 30.909
 990 1 0 16.694  9.796 49.409
 991 1 0 36.463 43.254 41.502
 992 1 0 18.514 11.683 48.133