### # LAMMPS data file written by PSP ###
122 atoms
3 atom types
0.0 48.676819 xlo xhi
0.0 13.777269 ylo yhi
0.0 14.288464000000001 zlo zhi

Masses

1 12.011
2 1.008
3 32.067

Atoms

  1 1 0 21.763  8.040  8.453
  2 1 0 39.500  9.515  8.888
  3 1 0 22.067  8.390  6.985
  4 1 0 24.761  7.682  7.048
  5 1 0 25.856  6.642  6.796
  6 1 0 44.689  5.148  7.682
  7 1 0 27.919  5.618  5.334
  8 1 0 29.174  6.498  5.215
  9 1 0 19.615  6.315  7.923
 10 1 0 43.201  5.284  7.326
 11 1 0 31.782  7.417  7.252
 12 1 0 43.107  7.608  8.880
 13 1 0 33.134  9.609  8.514
 14 1 0 34.644  9.349  8.426
 15 1 0 42.131  8.713  9.277
 16 1 0 35.835  7.526  6.741
 17 1 0 37.271  8.074  6.765
 18 1 0 30.317  7.303  7.686
 19 1 0 18.999  4.910  7.928
 20 1 0 38.522  8.364  9.220
 21 1 0 16.559  6.319  7.336
 22 1 0  3.962  6.460  6.367
 23 1 0  4.349  7.628  7.273
 24 1 0  5.907  8.791  9.188
 25 1 0  7.378  9.099  9.486
 26 1 0  9.060  7.981  7.586
 27 1 0 13.153  8.379  7.356
 28 1 0 13.514  7.830  8.747
 29 1 0 10.500  7.937  8.107
 30 1 0 16.047  6.394  8.782
 31 2 0 26.719  6.884  7.452
 32 2 0 21.124  8.393  6.399
 33 2 0 29.212  6.927  4.189
 34 2 0 22.675  8.208  9.061
 35 2 0 14.304  4.908  8.039
 36 2 0 22.474  9.421  6.929
 37 2 0 27.968  5.128  3.000
 38 2 0 17.193  7.196  7.096
 39 2 0 15.699  6.373  6.650
 40 2 0 27.897  5.135  6.332
 41 2 0 24.580  7.685  8.141
 42 2 0 19.729  4.222  7.448
 43 2 0 20.568  8.628 10.412
 44 2 0 25.490  5.636  7.091
 45 2 0 18.374  3.000  9.175
 46 2 0 19.695  6.669  6.875
 47 2 0 18.975  7.003  8.506
 48 2 0 24.711  9.982  7.642
 49 2 0  6.133  5.577  5.959
 50 2 0 33.158  9.706 10.889
 51 2 0 30.165  7.957  8.569
 52 2 0 45.183  6.141  7.718
 53 2 0 43.216  5.176  4.952
 54 2 0 42.785  4.269  7.151
 55 2 0 43.620  7.905  7.941
 56 2 0 43.878  7.491  9.674
 57 2 0 42.048 10.777 10.426
 58 2 0 41.601  8.406 10.198
 59 2 0 39.807 10.041  9.817
 60 2 0 38.952 10.265  8.279
 61 2 0 37.731  6.946 10.935
 62 2 0 30.084  5.878  5.349
 63 2 0 37.521  8.819  9.413
 64 2 0 37.259  9.149  7.036
 65 2 0 36.302  5.231  7.262
 66 2 0 35.230  8.140  6.041
 67 2 0 35.048  9.889  7.543
 68 2 0 35.138  9.790  9.316
 69 2 0 16.925  6.361  9.448
 70 2 0 33.017 10.712  8.607
 71 2 0 32.425  6.958  8.024
 72 2 0 31.952  6.848  6.315
 73 2 0 28.671  5.961  8.726
 74 2 0 37.692  8.012  5.740
 75 2 0 12.981  8.431  9.517
 76 2 0 45.677  5.105  5.515
 77 2 0 12.905  7.959  5.039
 78 2 0 13.144  6.795  8.875
 79 2 0  3.000  6.695  5.865
 80 2 0  3.817  5.538  6.965
 81 2 0  3.478  7.905  7.907
 82 2 0  4.622  8.502  6.644
 83 2 0  5.496  9.608  8.556
 84 2 0  5.689  7.691 11.288
 85 2 0 44.784  4.673  8.682
 86 2 0  7.872  8.243  9.994
 87 2 0  8.502  7.153  8.063
 88 2 0  9.435  6.358  5.895
 89 2 0 10.914  6.932  7.890
 90 2 0 10.495  8.074  9.209
 91 2 0  7.428  9.969 10.177
 92 2 0 13.921  9.125  7.047
 93 3 0 20.512  9.192  9.120
 94 3 0 21.276  6.278  8.691
 95 3 0 18.720  4.292  9.624
 96 3 0 17.455  4.764  6.933
 97 3 0 15.004  4.968  9.261
 98 3 0 11.538  9.259  7.365
 99 3 0 13.116  7.058  6.096
100 3 0  9.004  7.694  5.786
101 3 0  8.263  9.589  7.954
102 3 0  4.942  8.756 10.738
103 3 0  5.746  7.166  8.357
104 3 0 23.221  7.218  6.165
105 3 0 15.298  8.040  9.144
106 3 0 25.325  9.349  6.546
107 3 0 35.786  5.821  6.093
108 3 0 27.997  4.268  4.117
109 3 0 29.148  7.903  6.398
110 3 0 29.941  5.604  8.233
111 3 0 32.249  9.168  6.951
112 3 0 32.388  8.899 10.028
113 3 0 35.058  7.564  8.399
114 3 0 38.374  7.114  7.877
115 3 0 39.007  7.514 10.763
116 3 0 40.966  9.019  7.897
117 3 0 43.056 10.245  9.610
118 3 0 42.229  6.006  8.709
119 3 0 42.942  6.261  5.801
120 3 0 45.578  4.090  6.493
121 3 0 26.389  6.586  5.041
122 3 0  5.218  6.171  5.076